# OOMMF OVF 2.0
# Segment count: 1
# Begin: Segment
# Begin: Header
# Title: m
# meshtype: rectangular
# meshunit: m
# xmin: 0
# ymin: 0
# zmin: 0
# xmax: 1.6e-07
# ymax: 1.6e-07
# zmax: 5e-09
# valuedim: 3
# valuelabels: m_x m_y m_z
# valueunits: 1 1 1
# Desc: Total simulation time:  2.4282544766362e-11  s
# xbase: 2.5e-09
# ybase: 2.5e-09
# zbase: 2.5e-09
# xnodes: 32
# ynodes: 32
# znodes: 1
# xstepsize: 5e-09
# ystepsize: 5e-09
# zstepsize: 5e-09
# End: Header
# Begin: Data Text
0.3916039 -0.9081087 0.14827314 
0.46070978 -0.8792522 0.121087775 
0.6464675 -0.7567777 0.09678526 
0.9836889 0.0720338 -0.16482513 
0.6194807 0.75383896 -0.21902159 
0.34855452 0.8669367 -0.3562734 
0.3794749 0.7946955 -0.47377008 
0.3617827 0.9023671 -0.23419435 
0.2167836 0.97575593 0.030087588 
0.13513334 0.9772262 0.16360945 
0.05476606 0.99192876 0.11435951 
-0.010065933 0.99987274 -0.012377272 
0.021518257 0.9964966 -0.08081839 
0.07819716 0.99674714 0.019502414 
0.092799254 0.97932726 0.17974007 
0.0015550607 0.9666871 0.2559566 
-0.123156466 0.97698456 0.17416579 
-0.15265682 0.9837914 0.094076894 
-0.14018385 0.98321456 0.11678056 
-0.13433392 0.9851691 0.106753804 
-0.2337624 0.9695842 0.07253758 
-0.30871007 0.9510833 0.011781606 
-0.23871385 0.97108847 -0.0016814616 
-0.071706936 0.99715763 -0.023124099 
0.071622305 0.9932796 -0.09091777 
0.14128101 0.98676 -0.079651125 
0.15482518 0.9879315 0.004546703 
0.2797388 0.95769197 0.067618914 
0.37120247 0.90421975 0.21117638 
-0.08317278 -0.20918755 0.9743321 
-0.49596864 -0.8393167 0.2226264 
-0.44052225 -0.8948377 -0.07215141 
0.31494084 -0.93683755 0.15214351 
0.41033736 -0.90145826 0.13782704 
0.64351344 -0.7541164 0.13114432 
0.9800563 0.19756947 -0.02135362 
0.56205386 0.81364477 -0.14858568 
0.33178663 0.8954805 -0.29670236 
0.4162303 0.8433349 -0.3399096 
0.36882755 0.9217452 -0.11980075 
0.19920751 0.979488 0.03032517 
0.114055336 0.98974395 0.086013615 
0.053418685 0.9959433 0.07241096 
0.0063333325 0.99997246 -0.00389418 
0.044789422 0.9969938 -0.06322555 
0.09371218 0.99556375 0.00842387 
0.076701716 0.9880288 0.13385013 
-0.018411506 0.98016876 0.19730729 
-0.12238208 0.98123544 0.14899585 
-0.121244155 0.98573077 0.11676877 
-0.08774598 0.98371696 0.1568493 
-0.05583567 0.9889723 0.13717277 
-0.1306357 0.98767954 0.08616014 
-0.21071605 0.97709084 0.029869976 
-0.16553509 0.98606086 0.016795961 
-0.038333666 0.9992302 -0.008341345 
0.087039374 0.9947289 -0.05420915 
0.15969388 0.9864212 -0.03835575 
0.13793483 0.99033993 0.014174854 
0.13796146 0.98889285 0.055295423 
0.06608446 0.98372376 0.1670942 
-0.3827681 0.73903143 0.5543656 
-0.98495346 -0.17073666 -0.026754394 
-0.65350986 -0.6511969 -0.38583362 
0.12058846 -0.96505916 0.23263587 
0.3125998 -0.9154679 0.25337723 
0.6090556 -0.73469555 0.29878724 
0.8344094 0.5074811 0.21499757 
0.4133869 0.9097716 -0.037775993 
0.25613892 0.94818586 -0.18797998 
0.31951743 0.93226427 -0.16968226 
0.23872668 0.9707409 -0.025915487 
0.08538498 0.9962414 -0.014582052 
0.031834505 0.99841833 -0.046341706 
0.029327031 0.9992119 -0.026751405 
0.028491797 0.99919647 -0.028192999 
0.087241225 0.99419385 -0.06298911 
0.13999397 0.9900363 -0.015157692 
0.10140347 0.9922615 0.07165585 
0.003953741 0.99354094 0.11340543 
-0.07600969 0.99338293 0.0860981 
-0.03919006 0.9925553 0.11531776 
0.008777275 0.97825986 0.20719695 
0.033464886 0.98119956 0.19007263 
-0.014199491 0.99361825 0.111897714 
-0.05938023 0.99682236 0.053096272 
-0.017517287 0.99847305 0.052389737 
0.057972953 0.99727225 0.045687538 
0.13374057 0.9906249 0.027855245 
0.18834496 0.98056316 0.05497302 
0.15648556 0.984924 0.07373673 
0.09678102 0.99410075 0.048962034 
-0.008029255 0.99713457 0.075220846 
-0.2266878 0.9589783 0.17021541 
-0.5647965 0.82463026 -0.03146327 
-0.6486706 0.67466265 -0.3522169 
-0.11302342 -0.90202284 0.41663 
0.21986546 -0.8747961 0.43173036 
0.5966036 -0.6448442 0.4777449 
0.42890024 0.85942924 0.27825537 
0.10234126 0.9945773 0.018506492 
0.03376663 0.9942305 -0.101811536 
0.08618871 0.99412256 -0.0655128 
0.05597809 0.9978104 0.035227746 
-0.04411308 0.9989819 -0.009453124 
-0.058817916 0.9946649 -0.08474845 
-0.013954855 0.99627954 -0.08504394 
0.031964526 0.9973939 -0.06468216 
0.1041241 0.99038917 -0.09103534 
0.1710679 0.983391 -0.06064729 
0.13633183 0.9906521 -0.00472262 
0.05513397 0.9980741 0.028432824 
-0.005671433 0.9997292 0.022569818 
0.057349786 0.994867 0.08337081 
0.120806664 0.96955156 0.21301582 
0.10342144 0.9670064 0.23281479 
0.038665626 0.98754233 0.15252952 
0.03642593 0.997332 0.063263156 
0.107158236 0.9921518 0.064435445 
0.15499683 0.98278123 0.10058349 
0.18630058 0.9763772 0.10945189 
0.19651684 0.9722921 0.12660675 
0.14571086 0.9830008 0.11170383 
0.073443115 0.99585474 0.053661887 
-0.03598388 0.99795914 0.052752934 
-0.14867319 0.9841018 0.09715959 
-0.26163095 0.9630669 0.06365185 
-0.29896408 0.9534236 -0.04005089 
-0.084956564 0.5325489 0.8421247 
-0.0396675 0.41172355 0.91044503 
0.15379582 0.7423637 0.65210664 
0.030470714 0.98621994 0.16260907 
-0.065622956 0.99782866 -0.005623228 
-0.077749945 0.99430543 -0.07288237 
-0.047703404 0.9988357 -0.007200836 
-0.04278978 0.99675024 0.06824997 
-0.09573212 0.994535 0.041658908 
-0.09481489 0.9954758 0.0061737173 
-0.06372267 0.997901 -0.01153217 
-0.0007531781 0.999379 -0.035231043 
0.08130455 0.99242955 -0.092049934 
0.14783342 0.9856775 -0.08114967 
0.100616045 0.9944757 -0.029907715 
0.030101681 0.9994817 0.01141021 
0.006406369 0.9997954 0.019190924 
0.08496027 0.9948404 0.055448513 
0.16999216 0.975164 0.14197841 
0.15857077 0.96920735 0.18839446 
0.078871876 0.9855467 0.14992352 
0.097239405 0.9934003 0.06083096 
0.18887872 0.98065674 0.05135518 
0.22456495 0.96796703 0.11229683 
0.23362911 0.9600194 0.15420817 
0.21353923 0.96536267 0.14992031 
0.12692489 0.98631084 0.105267026 
0.043413118 0.9972138 0.06066407 
-0.04830601 0.9953048 0.08387396 
-0.09114879 0.9843625 0.1507396 
-0.13908216 0.9723572 0.18755735 
-0.15186535 0.9741114 0.16746344 
0.019967496 0.8998135 0.4358177 
-0.019096885 0.907022 0.42064992 
-0.026517926 0.9663225 0.25596413 
-0.061202273 0.9947274 0.08229182 
-0.07242555 0.9973718 0.0020136638 
-0.10737458 0.99369955 -0.032123327 
-0.08813192 0.99551815 0.03429881 
-0.045335706 0.99579334 0.079626895 
-0.027688792 0.9966281 0.07723786 
-0.01984521 0.9947167 0.10072173 
-0.034397475 0.9953874 0.089559704 
0.011153708 0.9997282 0.020477457 
0.07681197 0.99572927 -0.05121655 
0.10987291 0.99231666 -0.056883104 
0.053516746 0.99856627 -0.0012320806 
-0.0024572033 0.9986456 0.051970176 
0.0193052 0.99772465 0.06459767 
0.07958918 0.9949986 0.060360335 
0.1427226 0.98735374 0.06901467 
0.179828 0.9783587 0.1023535 
0.1622702 0.97913796 0.12230003 
0.19502477 0.9768491 0.08792707 
0.25930473 0.9625397 0.07923719 
0.26045656 0.9599047 0.10366019 
0.24976104 0.95976526 0.12833652 
0.22477032 0.96723187 0.11807163 
0.12423454 0.9889552 0.080829434 
0.025470117 0.9969819 0.07333795 
-0.038545847 0.9906128 0.13115132 
-0.05154864 0.9699845 0.23764059 
-0.08675567 0.9478453 0.3066967 
-0.103498235 0.94590265 0.3075003 
-0.072550625 0.9674373 0.24249016 
-0.08324832 0.98172325 0.17114133 
-0.080621116 0.9902063 0.113981426 
-0.073016696 0.99399436 0.08150925 
-0.055605285 0.9980473 0.02845514 
-0.087079406 0.9959705 0.021449069 
-0.033890415 0.99376094 0.106257826 
0.06313298 0.9872373 0.1462083 
0.13409781 0.98155165 0.13628706 
0.12762626 0.9754316 0.17956813 
0.05626221 0.9833432 0.17283216 
0.04646582 0.99516165 0.08656878 
0.06281776 0.99772817 0.024338966 
0.06041742 0.9981571 0.005687543 
0.026196107 0.99899924 0.036254328 
0.004823028 0.99594724 0.08981015 
0.059464958 0.9906445 0.12283069 
0.098162584 0.98977023 0.10353338 
0.1138773 0.9922665 0.04938769 
0.16060616 0.98630136 0.03762189 
0.21220572 0.9731924 0.08868698 
0.27150697 0.95472807 0.12156658 
0.30450445 0.9417977 0.14245771 
0.28127056 0.95073706 0.13032998 
0.26478726 0.95723623 0.11656126 
0.23119175 0.9652391 0.12191757 
0.12668523 0.9874054 0.09477001 
0.011897695 0.9953697 0.0953812 
-0.042747423 0.98485583 0.16802257 
-0.061862018 0.9507099 0.30384836 
-0.07483626 0.91749054 0.39065418 
-0.09266493 0.9182174 0.38508445 
-0.11166745 0.9874769 0.11144445 
-0.13198143 0.98990154 0.051728815 
-0.12989476 0.9904272 0.0467066 
-0.097745605 0.9917386 0.083068036 
-0.053747986 0.9963431 0.06642037 
-0.044569574 0.9960578 0.07669766 
0.0437838 0.98471457 0.16858341 
0.15572922 0.9671388 0.2009748 
0.22213008 0.95370233 0.20275658 
0.18643478 0.94678444 0.2623763 
0.07224537 0.9622453 0.262421 
0.03828233 0.9826103 0.18169081 
0.04793394 0.98904043 0.1396479 
0.040392406 0.9931633 0.109522685 
0.026184471 0.99592936 0.08625026 
0.032686114 0.9937752 0.10650146 
0.10211833 0.9832846 0.15074235 
0.14167021 0.9802297 0.13812833 
0.13199914 0.990095 0.047835395 
0.15285532 0.9879335 -0.024953295 
0.21677463 0.9761391 0.012696841 
0.3054723 0.94898903 0.0781438 
0.3420163 0.93085593 0.12857684 
0.34117183 0.93109566 0.12908405 
0.34675977 0.92987424 0.122847706 
0.29116964 0.94389904 0.15580378 
0.16121252 0.9779654 0.13264339 
0.022150557 0.9918114 0.12577574 
-0.03909129 0.9838362 0.17475224 
-0.07125401 0.9554612 0.2863857 
-0.07398493 0.92311066 0.3773501 
-0.09325578 0.9241386 0.3705015 
-0.075617194 0.99483967 0.067646585 
-0.1321814 0.99059784 0.035272095 
-0.15941146 0.98605645 0.047756944 
-0.10868315 0.9898809 0.09123495 
-0.055024233 0.9943565 0.090705924 
-0.03233542 0.9927252 0.11597932 
0.039635025 0.9819757 0.18480521 
0.12681232 0.9711853 0.20178671 
0.16921817 0.9573054 0.23437546 
0.13462846 0.9462463 0.2940974 
0.04690445 0.9488887 0.31210616 
0.023221923 0.9652598 0.26025826 
0.04808537 0.9766679 0.20930286 
0.03789816 0.9878657 0.15061589 
0.031957027 0.995212 0.09236744 
0.06630893 0.9939849 0.08716284 
0.148559 0.98101014 0.12469705 
0.19357793 0.9734088 0.12248603 
0.1857864 0.9823015 0.023820788 
0.1928171 0.97725236 -0.088314906 
0.23463196 0.967988 -0.08914673 
0.33439955 0.9409867 -0.052163843 
0.3927933 0.9195482 -0.012026335 
0.4198902 0.9074273 0.01636661 
0.44611138 0.89354795 0.050562937 
0.3684405 0.92477024 0.095140144 
0.21511151 0.9731201 0.08224692 
0.06707509 0.9949234 0.075022385 
0.003578254 0.99479485 0.10183604 
-0.043835066 0.9792088 0.19806215 
-0.029313907 0.9460576 0.32266992 
-0.015245589 0.9432688 0.33168024 
0.06781033 0.97316855 0.21987432 
-0.009969263 0.99070585 0.135656 
-0.07708891 0.9945061 0.07081622 
-0.04287741 0.9973103 0.05944555 
-0.011324496 0.99752074 0.06945552 
-0.010094574 0.9925632 0.12131112 
0.015808556 0.9855252 0.16879052 
0.059073918 0.9839953 0.16811787 
0.06607205 0.9771671 0.20193776 
0.049159866 0.9646229 0.25900972 
0.014037 0.9351817 0.3538902 
-0.026984926 0.9295642 0.36767143 
-0.027222859 0.96702665 0.25321594 
-0.03370719 0.9886551 0.14637277 
-0.025514835 0.9952776 0.09365697 
0.026084857 0.9955086 0.091006175 
0.12244666 0.98585 0.11448434 
0.17592993 0.97741807 0.11705822 
0.17782569 0.9828122 0.049580697 
0.19120298 0.97989464 -0.056991883 
0.22438517 0.96764326 -0.115403585 
0.31209362 0.9381112 -0.15015006 
0.36304125 0.9204445 -0.14485498 
0.39171192 0.913694 -0.10828246 
0.43269804 0.9000994 -0.050927687 
0.37106135 0.9285778 -0.007535944 
0.25749144 0.9658888 0.0275153 
0.15592834 0.9869013 0.041379597 
0.082854755 0.9962645 0.02433534 
-0.00084244297 0.99531054 0.09672753 
0.0220889 0.9788318 0.2034708 
0.022320312 0.9811149 0.19213359 
0.40225288 0.80188966 0.44177562 
0.28336376 0.9208938 0.2676934 
0.105172336 0.984546 0.140029 
0.054485418 0.996539 0.06278105 
0.037969057 0.9976571 0.0569084 
-0.0004550615 0.99377954 0.11136461 
-0.0151244 0.99164027 0.12814447 
-0.033317775 0.9927939 0.11511006 
-0.074327044 0.98545444 0.15282397 
-0.1017399 0.9580776 0.26783657 
-0.12125931 0.8589708 0.49745893 
-0.18427643 0.7978439 0.5740099 
-0.18922569 0.9190256 0.3458115 
-0.14658295 0.97426313 0.17124465 
-0.09700104 0.9883819 0.11701253 
-0.02296239 0.9917506 0.12610951 
0.10001254 0.9818523 0.16113238 
0.1479396 0.97335106 0.17521864 
0.12960048 0.9808423 0.14543787 
0.14160235 0.98747224 0.06962414 
0.19103223 0.98126245 -0.025118602 
0.2570281 0.9588472 -0.12061745 
0.272864 0.9527999 -0.13310751 
0.26162258 0.9583739 -0.11433822 
0.27272406 0.95892733 -0.07797467 
0.25442532 0.96621484 -0.041192424 
0.27052367 0.9622381 0.030247051 
0.29250675 0.9550263 0.048628036 
0.2171308 0.9760442 -0.013855015 
0.11978419 0.9926862 0.015034365 
0.13675158 0.9905254 -0.012586875 
0.036827106 0.99708605 -0.066808686 
0.8918071 0.08710918 0.4439507 
0.8232213 0.46901724 0.31988978 
0.40943512 0.86497897 0.29012835 
0.14711347 0.9813691 0.12358138 
0.042839207 0.9965817 0.07063913 
-0.028622054 0.9942411 0.10327383 
-0.06456702 0.99320316 0.09684369 
-0.12618367 0.9869659 0.09988062 
-0.24444918 0.9518987 0.18475224 
-0.35199985 0.84898984 0.3940971 
-0.38889515 0.57037926 0.7234834 
-0.41395107 0.43314612 0.80064285 
-0.3783939 0.78125215 0.49645066 
-0.25120676 0.9341093 0.25364357 
-0.15695365 0.97396165 0.16359799 
-0.07725424 0.98383 0.16158727 
0.04786734 0.9778093 0.20395549 
0.10814279 0.96909416 0.22172442 
0.105658814 0.97438467 0.19852176 
0.120098084 0.9819276 0.14626907 
0.17771481 0.982127 0.06200054 
0.21922813 0.9753333 -0.02577272 
0.20537622 0.9784565 -0.021062272 
0.16061573 0.98701686 0.00061758544 
0.12986596 0.9912179 0.024938937 
0.14846672 0.98800445 0.042485192 
0.26922742 0.96093684 0.06416407 
0.36377078 0.9307091 0.03809731 
0.32134914 0.9469207 0.0087133385 
0.33461267 0.9423052 0.009765685 
0.39213085 0.89476615 -0.2136046 
0.22096738 0.92658013 -0.3043401 
0.38135055 -0.90898293 0.168291 
0.54953164 -0.76985705 0.32455406 
0.49242628 0.50945956 0.7056681 
0.10240038 0.969157 0.22416306 
-0.021417143 0.99777067 0.06320605 
-0.08383221 0.9944993 0.0627963 
-0.12795463 0.99047637 0.050834596 
-0.21942726 0.9721202 0.08266824 
-0.417386 0.881046 0.22259109 
-0.6026995 0.6281587 0.49210772 
-0.57774085 0.20552167 0.78992176 
-0.50871944 0.015691988 0.8607894 
-0.48752952 0.53385717 0.6908773 
-0.30977035 0.85889935 0.4078412 
-0.1968078 0.94636935 0.25622597 
-0.13665794 0.96580017 0.22035159 
-0.043187093 0.9686914 0.244483 
0.027499225 0.9702281 0.24062675 
0.07115384 0.979309 0.1894491 
0.1050576 0.98556674 0.13274442 
0.15396081 0.9851762 0.07565666 
0.18878593 0.9815503 0.030314721 
0.1762316 0.98286843 0.053963985 
0.13902974 0.9875094 0.07413459 
0.085725576 0.9935735 0.07391197 
0.08302874 0.99380815 0.07383502 
0.202986 0.97671646 0.06943938 
0.3158685 0.9463813 0.06774773 
0.39900255 0.9039624 0.15378225 
0.6505169 0.7315348 0.2041684 
0.7921011 0.56534535 -0.23013149 
0.6061622 0.6350055 -0.4788898 
0.06663713 -0.9933878 0.09348942 
0.07216357 -0.9459174 0.3162794 
-0.030700201 -0.06806681 0.99720836 
-0.15886141 0.9443337 0.28809205 
-0.12434065 0.9913364 0.042327814 
-0.12654857 0.9918419 0.015335608 
-0.16572925 0.98609644 0.012151395 
-0.2816092 0.9572051 0.06674272 
-0.54425323 0.80277777 0.2435906 
-0.75642276 0.36717275 0.54130286 
-0.68187135 -0.07821477 0.7272784 
-0.58391005 -0.25890547 0.76942647 
-0.62215084 0.18805921 0.75997514 
-0.4313931 0.73799795 0.5189019 
-0.26423332 0.916608 0.30001763 
-0.17993258 0.95539206 0.23420145 
-0.09306138 0.9649985 0.24518912 
-0.030145837 0.9715292 0.23499429 
0.006516027 0.9850151 0.17234524 
0.031243393 0.9940655 0.104200475 
0.06099371 0.9958865 0.06700659 
0.10230153 0.9937947 0.04366441 
0.10876251 0.992848 0.049229953 
0.08487187 0.99527484 0.04716829 
0.017359052 0.9990011 0.04117666 
-0.017925082 0.9966371 0.07995741 
0.07840961 0.98828655 0.13092662 
0.21973789 0.95650107 0.19188774 
0.43119693 0.8042101 0.40904212 
0.723718 -0.25469732 0.6413748 
0.75359297 -0.58013475 0.3090978 
0.7963328 -0.5689554 -0.20528987 
-0.119112544 -0.98442346 0.1293167 
-0.2127739 -0.94434446 0.25088045 
-0.5846976 -0.47273943 0.659277 
-0.46192595 0.851563 0.24792102 
-0.20901126 0.9765927 0.050803192 
-0.13097799 0.9913509 0.008269319 
-0.15679479 0.98757905 -0.010156789 
-0.26761174 0.9631338 0.027519826 
-0.5302823 0.8272987 0.18541199 
-0.81506664 0.37507382 0.44157246 
-0.8233564 -0.10518285 0.5576926 
-0.7481923 -0.24662185 0.61594313 
-0.73798186 0.15152933 0.6575878 
-0.49343893 0.7156508 0.49432984 
-0.2658689 0.9196727 0.2889912 
-0.14797153 0.963793 0.22182776 
-0.07097044 0.97250456 0.22180659 
-0.04354949 0.97470707 0.21920225 
-0.06457195 0.98294014 0.1722186 
-0.10799783 0.988729 0.10368974 
-0.12636447 0.989437 0.07103894 
-0.07991615 0.9963349 0.030499334 
-0.027529018 0.9995981 -0.0067629917 
0.0013445158 0.9996283 -0.02723265 
-0.038326308 0.9990857 -0.018943617 
-0.08047671 0.99490905 0.060658906 
-0.036499985 0.98690456 0.15712142 
0.027106889 0.9657684 0.25798562 
0.13452679 0.8330219 0.5366351 
0.28575101 -0.88672507 0.36340758 
0.27421516 -0.9477494 0.16302544 
0.27139893 -0.9600313 -0.06842976 
-0.14107291 -0.9854007 0.095309496 
-0.21076189 -0.9697397 0.12322497 
-0.5439675 -0.78887564 0.28596264 
-0.566102 0.7808966 0.2640624 
-0.22889553 0.96466357 0.13050276 
-0.102040336 0.991613 0.0793189 
-0.11771298 0.9930295 0.0060107945 
-0.2073108 0.9773878 -0.041658677 
-0.43770573 0.89875436 0.025582036 
-0.76714146 0.5989509 0.22967769 
-0.88720876 0.22774354 0.40124005 
-0.85092735 0.16526662 0.49860764 
-0.7258167 0.5015151 0.47082138 
-0.42547074 0.8321538 0.35566112 
-0.20748869 0.9500559 0.23311433 
-0.11543485 0.97778016 0.17498809 
-0.07955978 0.9833841 0.16317523 
-0.1015106 0.9784821 0.17963387 
-0.2225846 0.95472646 0.19736628 
-0.42506886 0.88272715 0.20027278 
-0.5503877 0.8129107 0.19039333 
-0.5125301 0.8562454 0.064472735 
-0.3573817 0.9316188 -0.06606613 
-0.18040246 0.9765116 -0.11781373 
-0.116348624 0.98938227 -0.087096155 
-0.119066514 0.99246323 0.028980799 
-0.116901554 0.9830333 0.14134938 
-0.18430805 0.96183616 0.20224217 
-0.3780548 0.8530731 0.35964006 
-0.17946838 -0.96047825 0.21277356 
-0.026331699 -0.99543846 0.09170068 
-0.022843108 -0.9997083 0.007857916 
-0.017572857 -0.9997764 0.01175725 
-0.025261449 -0.99771476 0.06266721 
-0.21202956 -0.9578929 0.19360976 
-0.31609473 0.8500604 0.4212855 
-0.10184797 0.96439546 0.24406648 
-0.02080112 0.98463506 0.17338198 
-0.05949791 0.9958519 0.06884151 
-0.10947398 0.99346906 -0.03216598 
-0.20446897 0.97785264 -0.044684075 
-0.377082 0.9249065 0.048551917 
-0.5053724 0.8478053 0.16070162 
-0.5376327 0.8127542 0.22445893 
-0.4172586 0.87767804 0.23574722 
-0.23363099 0.94204444 0.24076767 
-0.124155365 0.97127265 0.20301487 
-0.096410826 0.9818195 0.16351002 
-0.10940234 0.9817135 0.15578835 
-0.20024692 0.9585133 0.20286281 
-0.45001057 0.8390097 0.3058649 
-0.7835029 0.4700926 0.40636945 
-0.899261 0.15054022 0.41069126 
-0.9514127 0.2106562 0.22458385 
-0.83176816 0.5544609 0.027110118 
-0.4747369 0.87233937 -0.11682818 
-0.23342419 0.9645816 -0.122864015 
-0.16765128 0.9854022 -0.029589536 
-0.18743055 0.98077583 0.054302458 
-0.31584913 0.94676226 0.062294256 
-0.6385661 0.7632233 0.098608024 
-0.516205 -0.83309543 0.19870695 
-0.20558941 -0.97325325 0.102523685 
-0.15464072 -0.98564357 0.067772545 
0.2912362 -0.9504948 -0.10835732 
0.3336066 -0.9382109 0.09201588 
0.31644505 -0.8920631 0.32262376 
0.15794687 0.86249894 0.48077902 
0.06939999 0.96028215 0.27026254 
0.0328307 0.97909105 0.20075628 
-0.029088333 0.99380493 0.1072645 
-0.033346172 0.9992425 0.020060679 
-0.017816635 0.9998409 -0.00082282047 
-0.048327714 0.9981479 0.03694853 
-0.08904533 0.9935978 0.06952997 
-0.14137395 0.9870898 0.07528031 
-0.12753023 0.98612 0.106317796 
-0.08260254 0.9783655 0.18967839 
-0.058581695 0.97198015 0.22764623 
-0.07806967 0.9729123 0.21759315 
-0.13050964 0.96889985 0.21023893 
-0.25888073 0.92504376 0.2779837 
-0.540046 0.71318513 0.44689742 
-0.8202949 0.13827698 0.55497354 
-0.84620154 -0.22026603 0.48520702 
-0.92212105 -0.1593729 0.3525524 
-0.93492156 0.22120355 0.27747193 
-0.65902734 0.7491425 0.06684677 
-0.3345259 0.94152236 -0.040349662 
-0.20217164 0.97888184 -0.030282266 
-0.18218227 0.98323417 -0.0077601997 
-0.25769493 0.96599543 -0.021123918 
-0.52988446 0.84564966 0.06402446 
-0.65919065 -0.56326413 0.49819815 
-0.24623616 -0.94589466 0.21130808 
-0.15066089 -0.9819651 0.11421805 
0.8221137 -0.45145342 -0.34687027 
0.9162203 -0.37426108 0.1430705 
0.84136665 0.0029318072 0.5404568 
0.41361424 0.8651182 0.28371423 
0.21930955 0.9616091 0.16495842 
0.1185537 0.97858715 0.16826244 
0.022450365 0.99081403 0.13335566 
0.022875099 0.99634546 0.08229532 
0.080085255 0.9943688 0.06940508 
0.10320296 0.99151343 0.079058856 
0.09886717 0.99265903 0.06966728 
0.049945757 0.9968276 0.06197006 
0.025547618 0.9947648 0.09894636 
0.015238212 0.9821743 0.18735422 
-0.01290953 0.96790504 0.2509848 
-0.07327989 0.9643894 0.25413212 
-0.15296917 0.9613841 0.22878158 
-0.27979663 0.9199466 0.27461275 
-0.530467 0.73181 0.42785412 
-0.7784883 0.17891468 0.60161906 
-0.7369288 -0.2122351 0.6417883 
-0.80474454 -0.1611489 0.57132953 
-0.8807835 0.14519851 0.45070818 
-0.6955052 0.69457006 0.18397036 
-0.35681632 0.933601 0.032729615 
-0.20396757 0.9789322 -0.009439697 
-0.1497391 0.98855495 -0.018367318 
-0.13731232 0.99030405 -0.021053938 
-0.2119115 0.959295 0.18667293 
-0.200646 -0.21874957 0.95492923 
0.008655859 -0.9502 0.31152073 
0.033073895 -0.9934794 0.109110154 
0.5416393 0.6345502 -0.5513375 
0.6791549 0.6365651 -0.3654224 
0.6153959 0.7842136 0.079354264 
0.37387985 0.9245152 0.074065246 
0.29100707 0.95569736 0.044243366 
0.21874301 0.97073835 0.09908902 
0.109014064 0.9864352 0.12272616 
0.08450379 0.9900546 0.11247726 
0.13471788 0.9858582 0.09967387 
0.17289242 0.9812733 0.084918 
0.19329305 0.9799459 0.0484149 
0.16423412 0.9852894 0.04724528 
0.11805158 0.98675805 0.111231275 
0.088644594 0.9737764 0.20952754 
0.04900553 0.95961815 0.2770047 
-0.036953643 0.963055 0.2667576 
-0.15245056 0.9653442 0.21182445 
-0.26851115 0.93764037 0.22075419 
-0.44447374 0.83887506 0.3142161 
-0.6670606 0.52206874 0.53148323 
-0.66097945 0.059204463 0.74806494 
-0.7138266 0.112982616 0.6911487 
-0.77326226 0.46540445 0.43065554 
-0.5601425 0.8093298 0.17670792 
-0.28377935 0.9574897 0.051796176 
-0.16814429 0.9857112 0.010054125 
-0.10788588 0.9941282 0.008361377 
-0.03347536 0.9993575 0.012801244 
0.071074806 0.97870773 0.19256072 
0.4418913 0.46708804 0.76587266 
0.5001408 -0.7883995 0.35816962 
0.35282284 -0.9128633 0.20541833 
0.21854036 0.92910814 -0.29832557 
0.3311317 0.9024945 -0.27541888 
0.31889075 0.9456439 -0.06376792 
0.2954306 0.9536389 -0.057389926 
0.3492681 0.9370055 -0.0057049184 
0.28324643 0.9542949 0.09535527 
0.15291008 0.98257375 0.10567554 
0.110420406 0.99121225 0.072839186 
0.14967348 0.988046 0.036918357 
0.20768635 0.9780311 0.017930819 
0.23963481 0.9707917 -0.011779554 
0.2057485 0.9783081 0.024100369 
0.1320263 0.9823409 0.13257307 
0.10471041 0.967002 0.23225644 
0.0972279 0.95885825 0.2667163 
0.012842368 0.9742642 0.22504327 
-0.12733227 0.9790611 0.15882662 
-0.22682148 0.9614853 0.1552357 
-0.31459528 0.92589474 0.20916201 
-0.4400966 0.79701036 0.41362974 
-0.4736798 0.4899205 0.73185074 
-0.4938315 0.5282045 0.6907464 
-0.49426156 0.78132236 0.38110498 
-0.34999117 0.9197472 0.1776837 
-0.17745331 0.9799512 0.09058754 
-0.11101731 0.99152386 0.06749475 
-0.06697614 0.9958306 0.0619333 
0.016899517 0.9984681 0.052687954 
0.118695475 0.98416734 0.13162841 
0.3892502 0.86483735 0.31708142 
0.8028334 0.48508802 0.34662408 
0.8362655 0.21416546 0.50477046 
0.012139556 0.9998118 -0.01513076 
0.111823395 0.9931264 -0.03457615 
0.13630626 0.99025905 -0.028418785 
0.23454605 0.97009677 -0.062452987 
0.30757943 0.95109415 0.028545115 
0.2531387 0.9643998 0.076511025 
0.19654047 0.9801406 0.02638907 
0.20368811 0.9784058 -0.035119288 
0.21796472 0.9726326 -0.080481604 
0.25753465 0.9615663 -0.095215954 
0.27313775 0.95579344 -0.108879425 
0.22143395 0.97319925 -0.062050052 
0.14146215 0.9885737 0.05206418 
0.10348707 0.9805387 0.16683646 
0.09876908 0.97330165 0.20719223 
0.040320437 0.98413956 0.17275324 
-0.06646573 0.9906834 0.11886527 
-0.13210048 0.9868103 0.09356706 
-0.17011285 0.9794956 0.10793534 
-0.23908378 0.93674546 0.25563028 
-0.26175147 0.8234959 0.5033296 
-0.23641911 0.83318913 0.49990183 
-0.19952549 0.9297818 0.30934694 
-0.13123465 0.974675 0.18106942 
-0.05228037 0.99104625 0.12285871 
-0.03290458 0.99310213 0.11254115 
-0.0104438905 0.9966097 0.08160948 
0.04841562 0.9972874 0.055443548 
0.08187897 0.9943744 0.06719708 
0.15976255 0.9790536 0.12621415 
0.35194176 0.90283906 0.24701993 
0.42574653 0.8098884 0.4035104 
-0.023293966 0.9729551 0.22981724 
0.004483549 0.9785737 0.20584846 
0.019594518 0.9954543 0.09320249 
0.114800766 0.99314487 0.022005137 
0.16516101 0.9853271 0.043037895 
0.21112427 0.9768543 0.034382954 
0.29213393 0.9563765 0.0014004073 
0.36483362 0.92940265 -0.055743296 
0.34911975 0.9304678 -0.1111091 
0.3427551 0.92971116 -0.13474458 
0.319556 0.93538207 -0.15147421 
0.2450683 0.95913774 -0.14140849 
0.1874055 0.97905135 -0.079608925 
0.14890012 0.98806447 0.039465755 
0.10831246 0.9880217 0.10991711 
0.05098898 0.992953 0.10697876 
-0.009016983 0.9966754 0.08097532 
-0.031937674 0.9974079 0.06447935 
-0.039680343 0.995529 0.085718915 
-0.07673781 0.98025006 0.18226698 
-0.09119791 0.9383854 0.3333404 
-0.049981944 0.92242503 0.3829281 
0.025644546 0.95109296 0.3078388 
0.058960486 0.9754532 0.21216716 
0.07436133 0.98474133 0.15733714 
0.03373087 0.99082637 0.130864 
0.0045723463 0.99803066 0.06256162 
0.025137624 0.9993266 0.026729602 
0.0018349609 0.99993587 0.011178954 
-0.027296614 0.9991724 0.030157711 
0.061952893 0.98977554 0.12847707 
0.12891887 0.9671128 0.21925485 
-0.051716167 0.9388944 0.34029812 
-0.051353972 0.94336414 0.32776052 
-0.044311486 0.9762972 0.2118499 
0.017958445 0.99265885 0.11960773 
0.06950252 0.9944379 0.07913788 
0.18804306 0.980145 0.06289324 
0.33559036 0.9388187 0.07745121 
0.43325365 0.9007907 0.02945433 
0.42366692 0.9057918 -0.0068932455 
0.4011443 0.91583085 -0.018359987 
0.3573814 0.9322858 -0.055873077 
0.2672632 0.9579294 -0.10460307 
0.21343943 0.9698733 -0.117428795 
0.17833209 0.98391974 -0.009987558 
0.13856113 0.9856562 0.0963474 
0.09784366 0.98764175 0.12243568 
0.07042599 0.9936594 0.08764347 
0.056529474 0.9966714 0.058741465 
0.02707186 0.99535984 0.09233643 
-0.013014058 0.98570424 0.16798136 
-0.034570403 0.96414316 0.2631212 
-0.0012118934 0.94214725 0.33519727 
0.098135255 0.9466309 0.30701694 
0.11966401 0.967889 0.22106889 
0.10060305 0.9756533 0.19488381 
0.014976028 0.98948455 0.14386168 
-0.065382525 0.9967594 0.046861634 
-0.07640356 0.99670565 0.027211849 
-0.13868463 0.9903221 0.0053662043 
-0.17616466 0.9841945 -0.018089201 
-0.11608671 0.99322915 0.0044507612 
-0.067766145 0.99651664 0.048604928 
-0.1325954 0.9192703 0.37062207 
-0.09843822 0.9184225 0.38315794 
-0.076647 0.94978815 0.30336085 
-0.030898342 0.98021114 0.19552898 
0.02975488 0.99054295 0.1339381 
0.15740566 0.97904396 0.12921482 
0.28830764 0.94349355 0.16339706 
0.3654958 0.922179 0.12648618 
0.38286334 0.9151703 0.12601247 
0.3826788 0.9130401 0.14111984 
0.34885085 0.9320232 0.0981617 
0.27136034 0.9621799 0.023947785 
0.2065178 0.9777455 -0.036935076 
0.1502582 0.9884029 0.021963134 
0.11841308 0.9850494 0.12512393 
0.09240221 0.9829281 0.15910403 
0.066032805 0.99317473 0.09614382 
0.037906103 0.99853116 0.03871493 
-0.00072017015 0.99727005 0.07383801 
-0.008442011 0.9892262 0.14615154 
-0.00012521844 0.97868377 0.20537338 
0.029234996 0.9660354 0.25675076 
0.11639706 0.962961 0.24322411 
0.14482665 0.9693872 0.19827694 
0.11757487 0.9683954 0.21996917 
0.0016013316 0.9882028 0.15314324 
-0.10920764 0.9922658 0.05901026 
-0.12535018 0.9896313 0.07012378 
-0.17997676 0.9813276 0.067858 
-0.18194829 0.9828057 0.031430006 
-0.16019234 0.98678744 0.024271587 
-0.14723104 0.98638254 0.07329813 
-0.14248729 0.9097605 0.38991454 
-0.09854663 0.9113367 0.39969224 
-0.06241225 0.9444929 0.32254905 
-0.03269166 0.9816764 0.18773063 
0.020936439 0.9942272 0.10523343 
0.11854798 0.9875151 0.10373247 
0.21396698 0.9659747 0.14529654 
0.26394412 0.9547643 0.13696261 
0.31045985 0.9378586 0.15503508 
0.33867246 0.9237804 0.17869195 
0.29517207 0.94305587 0.15335962 
0.23933037 0.9637055 0.118290596 
0.20229736 0.9776412 0.057388652 
0.14075755 0.9886423 0.052668095 
0.111614846 0.9879216 0.10748563 
0.085444584 0.9881424 0.12756932 
0.03391232 0.99697787 0.06989416 
0.008558536 0.99992037 0.009283756 
0.012635383 0.9998248 0.013811389 
0.043262903 0.9973068 0.05922436 
0.04893037 0.9939136 0.09869989 
0.023266474 0.9879708 0.15288036 
0.055901077 0.9794916 0.19357523 
0.09072593 0.97690195 0.19347227 
0.0606443 0.97581846 0.21000166 
-0.06455195 0.9874308 0.144269 
-0.14320302 0.986013 0.08527285 
-0.13013792 0.98428994 0.1193214 
-0.1442414 0.9792297 0.14249116 
-0.100913815 0.9862007 0.13124305 
-0.08084786 0.98134416 0.17443465 
-0.059070323 0.96735275 0.24645379 
-0.1377749 0.9408054 0.30968276 
-0.100678556 0.94627947 0.307277 
-0.048342954 0.9690971 0.24189648 
-0.030813256 0.990059 0.1372358 
0.027257593 0.99663055 0.077360995 
0.09886656 0.9912677 0.08725761 
0.1866381 0.9732872 0.13370965 
0.21706311 0.96498543 0.14726476 
0.25775817 0.9550199 0.14662153 
0.28023222 0.9511887 0.12926756 
0.20889197 0.9730507 0.09765473 
0.16337089 0.9796255 0.116806984 
0.19022769 0.97495806 0.115196414 
0.15613505 0.983365 0.09281764 
0.09603978 0.991665 0.08588829 
0.046553012 0.99589884 0.07757855 
0.009373743 0.9993312 0.035345424 
0.009185277 0.999839 -0.015419822 
0.046638712 0.9986614 -0.022370432 
0.064302646 0.9979202 -0.004511198 
0.024373135 0.9994212 0.023735173 
-0.07125745 0.99501616 0.06975128 
-0.08518531 0.98597056 0.14354636 
-0.04651021 0.9895238 0.13667287 
-0.06506287 0.99044055 0.12163271 
-0.13830909 0.9871925 0.07950806 
-0.15002027 0.9874429 0.049503654 
-0.12366147 0.98883206 0.08318039 
-0.07190315 0.99128634 0.11036967 