# OOMMF OVF 2.0
# Segment count: 1
# Begin: Segment
# Begin: Header
# Title: m
# meshtype: rectangular
# meshunit: m
# xmin: 0
# ymin: 0
# zmin: 0
# xmax: 1.6e-07
# ymax: 1.6e-07
# zmax: 5e-09
# valuedim: 3
# valuelabels: m_x m_y m_z
# valueunits: 1 1 1
# Desc: Total simulation time:  2.0194182289793122e-11  s
# xbase: 2.5e-09
# ybase: 2.5e-09
# zbase: 2.5e-09
# xnodes: 32
# ynodes: 32
# znodes: 1
# xstepsize: 5e-09
# ystepsize: 5e-09
# zstepsize: 5e-09
# End: Header
# Begin: Data Text
0.21206929 -0.95923567 -0.18679833 
0.42760086 -0.89324737 -0.13880438 
0.7443865 -0.66733557 -0.023497166 
0.9943205 0.0256534 0.1032893 
0.91354835 0.37529105 -0.15679975 
0.7929323 0.5834453 0.17564172 
0.4528448 0.8023267 0.38884884 
0.23617804 0.914238 0.3292247 
0.081678435 0.991052 0.10556788 
-0.01629769 0.9957958 -0.090140305 
-0.020173162 0.9939915 -0.10758254 
0.037616905 0.99767315 0.05686153 
0.028678522 0.9852323 0.16880432 
-0.10207233 0.9860466 0.13150431 
-0.21639758 0.97514933 -0.04749548 
-0.21311623 0.9663937 -0.1437521 
-0.18327126 0.9789174 -0.09017941 
-0.16619757 0.98464096 -0.053485066 
-0.18355188 0.9811076 -0.061127458 
-0.169903 0.9737586 -0.15141778 
-0.055581663 0.98401105 -0.16921294 
0.0809137 0.9780681 -0.19192675 
0.13614711 0.96978396 -0.20244285 
0.097070254 0.9916689 -0.084676936 
0.022342721 0.9963055 0.08292275 
0.062198896 0.98251575 0.17548282 
0.1535171 0.9536746 0.25872263 
0.14015746 0.86433905 0.48298433 
-0.24879308 0.38245475 0.8898486 
-0.68173134 -0.53839916 0.49534717 
-0.57850707 -0.81076825 -0.089355156 
-0.39069226 -0.7944401 -0.46499974 
0.20590335 -0.9736671 -0.09785841 
0.34092122 -0.93930566 -0.038441066 
0.7145937 -0.6975333 0.052945048 
0.9042655 0.35774368 0.23307368 
0.71396637 0.6984846 0.048697364 
0.491867 0.8453781 0.20833315 
0.25080967 0.9351451 0.25019652 
0.14191112 0.9722902 0.1857767 
0.046081387 0.9965562 0.06893754 
-0.007545563 0.99900216 -0.044019923 
0.020508021 0.99835503 -0.053542573 
0.07488363 0.9958075 0.05253495 
0.038225774 0.9912606 0.12625943 
-0.077192806 0.99120164 0.10751998 
-0.15321577 0.98814106 -0.0101123275 
-0.12496838 0.9897772 -0.0687326 
-0.1113561 0.9933252 -0.030082965 
-0.12964351 0.9912237 -0.02584915 
-0.18851717 0.9803808 -0.05757471 
-0.21260631 0.9683239 -0.13094856 
-0.12145971 0.98498076 -0.122720994 
-0.0005097108 0.9945647 -0.10411937 
0.06447658 0.9937156 -0.091500126 
0.031003809 0.9995155 -0.0027465313 
-0.04867699 0.9925619 0.1115862 
-0.011596373 0.9882449 0.15243872 
0.056416422 0.9812973 0.18404543 
0.03000978 0.9504634 0.3093845 
-0.2547204 0.81990486 0.512712 
-0.79390544 0.55849624 0.24040838 
-0.8828493 0.18485361 -0.43174812 
-0.68788844 0.06554117 -0.7228512 
0.13910984 -0.9841482 0.11000376 
0.13228422 -0.971825 0.19508243 
0.4765694 -0.8251285 0.3033885 
0.69812125 0.6721518 0.24665503 
0.48756257 0.86834794 0.09085507 
0.27702254 0.9511654 0.13617265 
0.115336135 0.98928577 0.08950608 
0.07831401 0.9954538 0.05420999 
0.016510082 0.9983505 0.054988023 
-0.014987074 0.9997717 0.015234798 
0.041233934 0.9991471 0.0022165515 
0.09710664 0.9932228 0.06386607 
0.040695515 0.9926421 0.11404201 
-0.053312846 0.992391 0.11098669 
-0.102097526 0.9939279 0.04102969 
-0.06546907 0.99779195 0.011181719 
-0.08572816 0.9957853 0.032595646 
-0.13837661 0.9903702 0.004325546 
-0.22389397 0.97338206 -0.04897856 
-0.25781056 0.9604451 -0.10525731 
-0.17469583 0.9825134 -0.06441187 
-0.07112834 0.99723667 -0.021443427 
-0.01177917 0.9999307 0.00019163454 
-0.04668057 0.9971086 0.059961952 
-0.120826185 0.9858623 0.11608868 
-0.09643755 0.98799866 0.12065882 
-0.04296192 0.9921523 0.11742361 
-0.03125606 0.99018896 0.13619444 
-0.13365056 0.9713035 0.1967409 
-0.32742372 0.9443381 0.031926222 
-0.42104933 0.87698376 -0.23155358 
-0.42339495 0.83751035 -0.34541732 
0.12004832 -0.77633846 0.6187787 
-0.1322166 -0.68700033 0.7145274 
-0.058031235 -0.4673027 0.8821908 
0.3467476 0.8217069 0.45228747 
0.32317027 0.9316027 0.16636558 
0.2048362 0.97501284 0.085978314 
0.10894673 0.99377966 -0.023083054 
0.11135768 0.99301714 -0.03894338 
0.07191635 0.99723417 0.018765539 
0.045704633 0.9988532 0.014260288 
0.0915441 0.99579996 -0.0015187105 
0.107691064 0.99213815 0.063753836 
0.021486405 0.99225706 0.12232878 
-0.05221048 0.9905906 0.12650844 
-0.060859807 0.9953874 0.07416315 
-0.024072148 0.99773705 0.06278114 
-0.08650769 0.9933 0.076626465 
-0.16571344 0.9855131 0.03609983 
-0.22617927 0.9738462 -0.021597859 
-0.23170634 0.9720309 -0.038317833 
-0.16716103 0.9844918 0.053227242 
-0.106815636 0.98888236 0.103451505 
-0.08585336 0.99184215 0.09422549 
-0.11713085 0.98628104 0.11631928 
-0.15778 0.97934985 0.12640993 
-0.15020919 0.9835432 0.10039956 
-0.111923955 0.9887092 0.09963522 
-0.07131925 0.9930532 0.09358947 
-0.111520626 0.9891381 0.095755205 
-0.18314117 0.98307216 -0.0053481665 
-0.23787022 0.9657407 -0.10374411 
-0.25764936 0.9553849 -0.14441851 
-0.30782694 0.45215687 0.8371361 
-0.3153184 0.63738024 0.7030795 
-0.23061244 0.7974328 0.5576011 
0.04677194 0.97259635 0.22774711 
0.18005946 0.98086864 0.07399486 
0.161007 0.9869506 0.002339035 
0.10233469 0.990761 -0.08899595 
0.10376995 0.9896576 -0.099043466 
0.07975699 0.99614704 -0.036469646 
0.08797944 0.9961107 -0.0048302338 
0.1198044 0.99277514 -0.006664181 
0.10417786 0.9923943 0.06557808 
0.016548816 0.99072725 0.13485484 
-0.029739736 0.98914695 0.14388902 
-0.010939982 0.9949085 0.10018765 
0.027561633 0.9952815 0.0930323 
-0.050115082 0.9923376 0.11293638 
-0.16532633 0.9820132 0.09119938 
-0.20918043 0.9771272 0.03829052 
-0.17823134 0.98314625 0.040707737 
-0.13656631 0.97907215 0.15088886 
-0.1425479 0.9683546 0.20486474 
-0.14983386 0.9712308 0.18509592 
-0.15311602 0.9693319 0.19222681 
-0.15733226 0.97081727 0.18099858 
-0.15203397 0.9797449 0.13032915 
-0.13363524 0.98348564 0.12205604 
-0.09774635 0.98847675 0.11558337 
-0.13218063 0.98911 0.064728655 
-0.19110787 0.9809222 -0.035629667 
-0.2621517 0.96004045 -0.09797433 
-0.29406425 0.9505627 -0.09978381 
-0.28010768 0.93233246 0.22868311 
-0.25792426 0.9486885 0.1829354 
-0.20736222 0.9674115 0.14531331 
-0.05494942 0.99676967 0.058572955 
0.06829928 0.99763983 -0.007069919 
0.05083429 0.99834543 -0.026875315 
0.008677352 0.99921954 -0.038537603 
-0.04817334 0.9977716 -0.046165533 
-0.11038761 0.99364144 -0.022167759 
-0.048242763 0.9987962 -0.008885087 
0.01712331 0.9998141 -0.008867836 
0.027476365 0.99837416 0.04994217 
-0.019344686 0.9932684 0.11420938 
-0.018688316 0.9926881 0.119252406 
0.01493979 0.99628216 0.08484568 
0.051341396 0.9972364 0.05370004 
0.004380055 0.99792296 0.064271055 
-0.121055536 0.9876713 0.09925204 
-0.18346758 0.9771054 0.10772622 
-0.1347757 0.9848615 0.10901039 
-0.09365711 0.98214275 0.16316865 
-0.13961643 0.9714588 0.19176874 
-0.16813496 0.96288836 0.21113192 
-0.17056444 0.9528188 0.2510859 
-0.17450245 0.9554991 0.23784542 
-0.15566508 0.97177625 0.17725497 
-0.14402649 0.9783661 0.14851359 
-0.12761417 0.9845106 0.12022319 
-0.17533845 0.9843239 0.019048747 
-0.25734988 0.9609767 -0.1014643 
-0.3514572 0.92498 -0.14453359 
-0.40354797 0.9089394 -0.1047772 
-0.13983087 0.98971397 0.030227017 
-0.14618407 0.98925656 -0.0013820115 
-0.12589146 0.992019 -0.007056098 
-0.059021182 0.9971583 -0.046818413 
-0.030857006 0.99682105 -0.07345462 
-0.08050031 0.9964065 -0.02634252 
-0.09054261 0.9952521 0.035713814 
-0.22248022 0.9740153 0.04238872 
-0.33411855 0.9421326 0.027407259 
-0.25253832 0.9675837 0.0024976851 
-0.15735702 0.98743874 0.014268511 
-0.11043557 0.99293226 0.043469943 
-0.104634084 0.9909286 0.08433493 
-0.06584374 0.99476177 0.07819052 
-0.024731342 0.9982789 0.053174242 
-0.014565392 0.99988735 0.003642922 
-0.019333864 0.999634 -0.018923312 
-0.06452415 0.9962781 0.057155177 
-0.10234597 0.98162705 0.16103971 
-0.06716079 0.9816182 0.17864789 
-0.03312571 0.9860537 0.16309796 
-0.07401434 0.9871779 0.1414278 
-0.11229744 0.97287875 0.20222841 
-0.13989921 0.9479407 0.28607094 
-0.17189166 0.9474283 0.269876 
-0.15249407 0.9672957 0.20269369 
-0.121575005 0.9823093 0.14243658 
-0.11725362 0.9891869 0.0880969 
-0.18414417 0.98258734 -0.024762709 
-0.29675514 0.94538003 -0.13488191 
-0.38917622 0.9098208 -0.14411128 
-0.45850584 0.884765 -0.08344732 
-0.057474133 0.9981567 -0.019490324 
-0.06134564 0.9969471 -0.04830321 
-0.030927444 0.99724907 -0.06736374 
-0.028713433 0.99426556 -0.10301311 
-0.09445348 0.99075925 -0.09733836 
-0.15007111 0.98846465 -0.020409362 
-0.16406588 0.9857316 0.037624624 
-0.31994903 0.9456726 0.057759 
-0.4249957 0.90228575 0.072520785 
-0.35836434 0.93037 0.07737467 
-0.2767796 0.9568814 0.088153705 
-0.2203462 0.97344744 0.062029302 
-0.15594426 0.9857152 0.06361617 
-0.10221536 0.99312496 0.057051558 
-0.08050203 0.9956956 0.045931462 
-0.11280773 0.99347967 0.016514972 
-0.11186024 0.9935225 -0.020010523 
-0.06809594 0.9963756 0.050978266 
-0.036679238 0.98088074 0.19112259 
-0.0028581745 0.9688802 0.24751413 
0.022342931 0.9707448 0.23907228 
0.0019926669 0.9814001 0.1919634 
-0.03863297 0.9703658 0.23853229 
-0.09582511 0.9453723 0.31159082 
-0.13938299 0.9521987 0.27182758 
-0.12314043 0.97023505 0.20851958 
-0.06683332 0.9872316 0.14459318 
-0.0676378 0.9935415 0.09110753 
-0.13921589 0.99023414 -0.0074365796 
-0.27037627 0.9561234 -0.11280379 
-0.38331813 0.91448486 -0.12955575 
-0.50104535 0.86110526 -0.08632167 
-0.08186992 0.9942657 -0.06879861 
-0.02966914 0.99900323 -0.033352118 
0.02415489 0.9987841 -0.042975824 
0.0045724837 0.9974426 -0.07132531 
-0.09491721 0.99343216 -0.06390138 
-0.15852588 0.9873448 -0.0044638533 
-0.2001432 0.9792763 0.03099469 
-0.31377017 0.946376 0.07694602 
-0.38741475 0.9089893 0.15377975 
-0.37085837 0.9126448 0.17188257 
-0.3588441 0.92364734 0.13456033 
-0.3252607 0.944094 0.053778008 
-0.23259911 0.97234476 0.021057399 
-0.15390478 0.9879349 0.017263489 
-0.123713076 0.99159443 0.037889913 
-0.16232634 0.9846838 0.06362488 
-0.1886111 0.9810865 0.04353493 
-0.13578583 0.98751193 0.079891056 
-0.04674765 0.98170155 0.18459925 
0.025809772 0.96431327 0.26350304 
0.057378743 0.9469607 0.31618536 
0.05523298 0.9493414 0.30935466 
0.015085226 0.9415438 0.33655277 
-0.06612783 0.92751086 0.3679006 
-0.12466707 0.94505525 0.3022066 
-0.13208517 0.9621628 0.23831965 
-0.07458431 0.97976863 0.18571669 
-0.055776548 0.9881351 0.14310159 
-0.10010422 0.9934626 0.054874722 
-0.190211 0.98002654 -0.058031667 
-0.27327713 0.95226884 -0.13602869 
-0.38454896 0.9111349 -0.14817376 
-0.056015227 0.9947926 -0.085147634 
0.033744823 0.9994298 0.0011844097 
0.062382612 0.9980094 -0.009264133 
-0.0072262944 0.99854493 -0.053440932 
-0.11608651 0.99147487 -0.059173703 
-0.15324965 0.988177 -0.0045533376 
-0.17479666 0.98417115 0.029210316 
-0.24548922 0.96394324 0.10270549 
-0.3260795 0.9227681 0.20535658 
-0.41884398 0.88815796 0.18906407 
-0.48664457 0.8665869 0.11047221 
-0.45770362 0.8883877 0.035704955 
-0.3385263 0.9406468 0.024158318 
-0.20160659 0.97868675 0.039080415 
-0.12911846 0.9883086 0.08108445 
-0.16391641 0.97921085 0.11948891 
-0.22320862 0.9701781 0.09451121 
-0.20451674 0.97321683 0.10498612 
-0.08816493 0.98132426 0.17096713 
0.042016562 0.97082174 0.2360927 
0.093216956 0.943258 0.3187082 
0.09130834 0.9264629 0.36514288 
0.070026144 0.90704924 0.41516027 
0.009458184 0.9045109 0.42634574 
-0.04708418 0.9301866 0.36405498 
-0.08599191 0.94969934 0.3011257 
-0.06683348 0.96418834 0.25665987 
-0.04446807 0.97626495 0.21196564 
-0.05434513 0.9891114 0.13676748 
-0.073061086 0.99584925 0.054281794 
-0.080885164 0.99486065 -0.060909268 
-0.13835317 0.9821264 -0.12761724 
0.16187835 0.9826061 0.09099857 
0.20550959 0.9586397 0.19691572 
0.13222265 0.98370564 0.1218216 
-0.0065392316 0.99988097 0.013983242 
-0.11173378 0.9930611 -0.036677327 
-0.12880084 0.99145204 -0.02081655 
-0.15602037 0.98775053 -0.002593822 
-0.22231865 0.9725566 0.06861566 
-0.32819837 0.9285352 0.17351751 
-0.52148795 0.83999306 0.14987326 
-0.6532674 0.75439394 0.06427867 
-0.6056675 0.79535395 0.024062594 
-0.45803612 0.88605934 0.07142694 
-0.24992718 0.9642532 0.08804719 
-0.12515369 0.98841286 0.0858869 
-0.15404929 0.9846603 0.08193215 
-0.22552212 0.9729369 0.05033329 
-0.23082095 0.9713723 0.056192238 
-0.12280919 0.9864549 0.10874087 
0.025256738 0.9861715 0.1637922 
0.09488741 0.9669332 0.23672055 
0.09711337 0.9500706 0.2965382 
0.111718096 0.924626 0.36412334 
0.10326817 0.92566 0.36399087 
0.05683328 0.9442126 0.3243957 
-0.01590321 0.95875794 0.283779 
-0.04536151 0.9678317 0.24747594 
-0.040418286 0.9759414 0.21425432 
-0.009483394 0.981801 0.18967609 
0.054203697 0.9833826 0.17326471 
0.12207557 0.99104255 0.054150123 
0.12523359 0.991938 -0.019381396 
0.6870397 -0.18264015 0.70329165 
0.55652475 0.2576456 0.7898728 
0.30245584 0.8290745 0.47027233 
0.08794557 0.98591954 0.14222652 
-0.02743362 0.9996163 -0.0038243867 
-0.06855386 0.9969939 -0.03610513 
-0.1250717 0.99080724 -0.05155609 
-0.20270152 0.9791898 -0.009966277 
-0.32628995 0.9414047 0.085393086 
-0.6187599 0.77551484 0.12535179 
-0.88056767 0.4584146 0.12023622 
-0.8688463 0.48589274 0.0949443 
-0.70156103 0.69464886 0.1589817 
-0.40569267 0.90752304 0.10869884 
-0.21916921 0.97460675 0.04589762 
-0.21394728 0.9768214 0.00681734 
-0.2630412 0.9644916 -0.023777215 
-0.27850908 0.9603314 -0.014012208 
-0.19473258 0.98018104 0.036390927 
-0.070098326 0.9937502 0.08687328 
-0.007602733 0.9894919 0.14438866 
0.0015177013 0.9846393 0.17459437 
0.059990156 0.97624534 0.20819779 
0.119494855 0.97628653 0.1805149 
0.11063986 0.9778736 0.17754433 
0.030080326 0.9789909 0.20167296 
-0.051650606 0.980946 0.18728893 
-0.08997203 0.97686446 0.19401264 
-0.014055357 0.9626796 0.2702785 
0.18741095 0.9325635 0.30854893 
0.37617216 0.92296207 0.08145844 
0.5719454 0.8183233 -0.056793783 
0.13803218 -0.89701205 0.4199008 
0.11233411 -0.67553097 0.72872424 
0.123934746 0.49175528 0.8618684 
0.06122303 0.9557473 0.28774798 
0.012719059 0.99869984 0.04936441 
-0.028660089 0.99940974 -0.018945625 
-0.10824183 0.9912124 -0.07603679 
-0.2065034 0.97420675 -0.09098119 
-0.3877393 0.92059666 -0.04647878 
-0.80209684 0.5954453 0.045669142 
-0.946732 -0.26311445 0.18565933 
-0.9302886 -0.30883458 0.19795 
-0.9469128 0.20631929 0.24655318 
-0.60393715 0.79174984 0.091608815 
-0.3372008 0.9413972 0.008191979 
-0.2658972 0.9639812 -0.0062384377 
-0.27471504 0.9611976 -0.025119035 
-0.2949264 0.9554517 -0.011420125 
-0.24956025 0.96756417 0.039235532 
-0.17599432 0.98040736 0.08847252 
-0.13357781 0.98296905 0.12620991 
-0.12238215 0.98533154 0.11893042 
-0.058406536 0.9943139 0.08904253 
0.02457089 0.9994536 0.02211251 
0.061630733 0.9978274 0.023286302 
0.015946116 0.9961111 0.08665176 
-0.08745237 0.98828155 0.12510628 
-0.15712546 0.9627518 0.22004664 
-0.016405625 0.90609616 0.4227538 
0.3922831 0.7515435 0.5303738 
0.7718544 0.62961483 0.088465266 
0.9487109 -0.10471409 -0.2982995 
-0.041696027 -0.9763792 0.2120027 
-0.11443437 -0.86444074 0.48953748 
-0.20757595 -0.07506377 0.9753347 
-0.014945526 0.94261235 0.33355436 
-0.0041115633 0.9990842 0.04259097 
-0.03921159 0.9991 -0.016173612 
-0.11453495 0.9918059 -0.056592852 
-0.21224771 0.96879417 -0.12801902 
-0.42580315 0.8824317 -0.20001501 
-0.8943907 0.3993606 -0.20143625 
-0.7947797 -0.6057804 0.03681493 
-0.77052116 -0.6298764 0.09773881 
-0.98196745 -0.097842604 0.16176118 
-0.7480513 0.6627038 0.03525534 
-0.4629917 0.88615656 -0.019113189 
-0.32221472 0.9465993 -0.011296324 
-0.27081466 0.96242344 -0.020017209 
-0.28124267 0.95957446 0.010928964 
-0.27608705 0.9583547 0.073021635 
-0.24897966 0.96031135 0.12574306 
-0.21578516 0.9657614 0.14401954 
-0.18712361 0.9751089 0.11894265 
-0.1404894 0.9877505 0.06791128 
-0.07692162 0.9969996 0.008658758 
-0.02409889 0.99969494 0.005412887 
-0.022739522 0.9981989 0.055514783 
-0.09289339 0.9906299 0.10011637 
-0.17661831 0.9587163 0.22286561 
-0.060597908 0.8614232 0.50426006 
0.51627105 0.2009801 0.8325091 
0.7782259 -0.62127227 0.09157156 
0.57700115 -0.8008538 -0.16032131 
-0.063186355 -0.9945113 0.08339585 
-0.16565312 -0.9438425 0.28586802 
-0.37789324 -0.5497113 0.7449928 
-0.10306682 0.96534556 0.23976061 
-0.06104599 0.99796647 -0.01834056 
-0.08869873 0.99463326 -0.053267423 
-0.13555163 0.9896373 -0.047368646 
-0.19005823 0.9736125 -0.12631987 
-0.3408812 0.8967938 -0.28206566 
-0.739921 0.50838655 -0.44052267 
-0.8552922 -0.48074424 -0.19328846 
-0.86641216 -0.48813 -0.10516211 
-0.9965537 0.07767532 -0.029108923 
-0.74201 0.6689052 -0.044576615 
-0.49695507 0.8674599 -0.023433186 
-0.3501838 0.93660563 0.0118846595 
-0.2900056 0.9570238 0.0015037613 
-0.30636975 0.9517806 0.0158533 
-0.33476672 0.9410032 0.049439892 
-0.33547813 0.9405106 0.053799406 
-0.29916072 0.9538321 0.026594177 
-0.233512 0.9723527 0.0016165127 
-0.1637426 0.98649263 0.004541366 
-0.10824518 0.9938779 0.022129575 
-0.061057653 0.99785215 0.023733707 
-0.031717468 0.99949104 -0.0034408437 
-0.07014555 0.9971288 -0.028528329 
-0.21744789 0.9709644 0.09972292 
-0.3890209 0.803662 0.45032212 
-0.14201976 -0.83620024 0.52971643 
0.164712 -0.9815559 0.097047634 
0.25407884 -0.9665129 -0.036009137 
-0.022474037 -0.99955446 0.01964666 
-0.16809827 -0.9687841 0.18220977 
-0.5178241 -0.68685836 0.5099842 
-0.28498915 0.94534624 0.15843558 
-0.16365668 0.9844297 -0.06414497 
-0.14498135 0.9851373 -0.092113994 
-0.14671333 0.9886895 -0.031118475 
-0.15689556 0.9863576 -0.04982409 
-0.21896864 0.96119815 -0.16778275 
-0.4228515 0.8478342 -0.3199591 
-0.7653468 0.4819909 -0.42653143 
-0.86271477 0.35403016 -0.3610898 
-0.8066522 0.5561695 -0.19996916 
-0.61785895 0.7813084 -0.08836002 
-0.46994385 0.8826789 0.005554901 
-0.37548143 0.9238132 0.0747184 
-0.35795 0.9313293 0.067063406 
-0.40000474 0.91576374 0.037054483 
-0.46193695 0.8868826 -0.007316385 
-0.51295435 0.851922 -0.10538928 
-0.48227802 0.84839326 -0.21825838 
-0.3562144 0.9051335 -0.23204468 
-0.19886753 0.9696478 -0.14224985 
-0.12898284 0.9907541 -0.04207041 
-0.095492624 0.99536955 -0.010978306 
-0.049596913 0.9964562 -0.067935936 
-0.05015564 0.9879904 -0.14614858 
-0.17043412 0.98105264 -0.092130736 
-0.42419907 0.8989698 0.10912582 
-0.49164432 -0.82824105 0.26889175 
-0.11180953 -0.98930573 0.09366372 
0.07346993 -0.9972272 0.011837607 
0.062502965 -0.9980022 -0.0092262225 
-0.10192626 -0.98570776 0.13413174 
-0.49163762 -0.7634394 0.4188707 
-0.4133518 0.8832259 0.22147729 
-0.22298396 0.974017 -0.039610837 
-0.14206852 0.9844761 -0.10306979 
-0.12142121 0.99237996 -0.020951334 
-0.13042982 0.99110305 0.02651394 
-0.16800529 0.98533195 -0.029920889 
-0.24749233 0.9606669 -0.12596366 
-0.40912506 0.89020526 -0.20037806 
-0.52498317 0.83772075 -0.15038884 
-0.514918 0.85502535 -0.061571237 
-0.4370091 0.89934677 -0.014084346 
-0.37828442 0.9254253 0.022113997 
-0.3558517 0.93120784 0.078877 
-0.3969831 0.91305363 0.09347408 
-0.49047944 0.8710999 0.02480184 
-0.6204695 0.77598095 -0.113451615 
-0.7601691 0.5720361 -0.3080873 
-0.77643114 0.38303205 -0.50044096 
-0.67103654 0.53085303 -0.5175954 
-0.35258353 0.8586715 -0.37197885 
-0.17784852 0.9661781 -0.1867344 
-0.13274089 0.98644036 -0.09651589 
-0.08251591 0.99077207 -0.10752604 
-0.04359502 0.9849362 -0.16733281 
-0.074366614 0.9895835 -0.123264946 
-0.22346462 0.97213876 0.07078118 
-0.5152883 -0.7626286 0.3909933 
-0.16991918 -0.9742825 0.14799044 
-0.0047770957 -0.9995189 0.030646194 
0.25356793 -0.96262366 -0.09517896 
0.18540722 -0.9788531 0.08643429 
-0.1265855 -0.787369 0.60334593 
-0.28727528 0.8106125 0.51027465 
-0.20228748 0.9691048 0.14112331 
-0.122903034 0.99230546 -0.014998599 
-0.09706292 0.99519074 0.013196885 
-0.10730609 0.9925537 0.057641316 
-0.14745711 0.98841625 0.035914335 
-0.19161959 0.9814683 -0.0014180013 
-0.24263427 0.9701171 -0.0012105249 
-0.3025903 0.95143026 0.05674241 
-0.31878465 0.94476426 0.07613709 
-0.32083526 0.9460825 0.04464003 
-0.31715694 0.9481424 0.020916611 
-0.3203854 0.94663674 0.035102442 
-0.3815696 0.9239984 0.025132323 
-0.5087145 0.859233 -0.054112766 
-0.71527296 0.6809443 -0.15716043 
-0.96268266 0.1628843 -0.2161269 
-0.8478508 -0.48464215 -0.21510743 
-0.81222576 -0.51311845 -0.27748683 
-0.6707505 0.42967096 -0.60454667 
-0.2898099 0.88303334 -0.36913756 
-0.16435906 0.9656923 -0.20105885 
-0.094229914 0.98732626 -0.12770161 
-0.025062343 0.99210125 -0.122910924 
-0.005121041 0.99795175 -0.0637667 
-0.07600935 0.97853506 0.19155101 
-0.4311256 -0.61773276 0.6576755 
-0.19079417 -0.94723004 0.2575904 
-0.06676022 -0.9943353 0.08270716 
0.5961121 -0.7623177 -0.25203624 
0.8534211 -0.51981246 -0.038307663 
0.6093996 0.45571005 0.6488147 
0.032891694 0.8986382 0.4374559 
-0.14353842 0.961523 0.23424433 
-0.12674381 0.9874037 0.094709896 
-0.088135004 0.9946648 0.053611033 
-0.08237767 0.9958899 0.03764655 
-0.117631756 0.99275994 0.02430449 
-0.15799177 0.9858606 0.055835903 
-0.17667776 0.9769625 0.119705446 
-0.2073606 0.96189433 0.17821603 
-0.241756 0.957507 0.15727219 
-0.29235864 0.95350635 0.07315838 
-0.32286772 0.9464317 0.0048717614 
-0.32466954 0.945794 -0.007967034 
-0.35991865 0.9324551 -0.031400852 
-0.46453893 0.8813021 -0.08666229 
-0.70942557 0.69664633 -0.106767096 
-0.99784136 0.061308194 -0.023535559 
-0.79439765 -0.6073697 0.005866343 
-0.7707756 -0.63292146 -0.072907194 
-0.87093604 0.22264571 -0.43806323 
-0.4109594 0.8419168 -0.3496978 
-0.20132425 0.95445526 -0.22019047 
-0.10534382 0.98739314 -0.1181419 
-0.021827813 0.9979088 -0.06084161 
0.015040275 0.9997478 0.016681798 
-0.028954573 0.9433337 0.3305803 
-0.321138 -0.145136 0.9358451 
-0.17904142 -0.865498 0.4678221 
-0.06563207 -0.9749633 0.2124594 
0.943779 0.014774057 -0.33024684 
0.7624363 0.646648 0.02318079 
0.4659483 0.7859497 0.40641773 
0.066420816 0.9086127 0.41232437 
-0.1406765 0.95900404 0.24601083 
-0.13017729 0.98589486 0.10519104 
-0.061785907 0.99668324 0.052963782 
-0.02331365 0.9993683 0.026822655 
-0.03839317 0.9989479 0.025083218 
-0.09256029 0.9924167 0.080880925 
-0.13534257 0.9812532 0.13720345 
-0.15339321 0.97362065 0.16891816 
-0.19456501 0.97276014 0.12602423 
-0.2829497 0.9587886 0.02576717 
-0.34576988 0.93736935 -0.04221345 
-0.3307681 0.9430197 -0.036143657 
-0.29190928 0.95590323 -0.032219343 
-0.32231674 0.9458122 -0.039388023 
-0.550117 0.83479357 -0.022156365 
-0.9275577 0.36457106 0.08200501 
-0.9506789 -0.2967717 0.09020194 
-0.94420344 -0.32464102 0.055571407 
-0.8862909 0.4473613 -0.119818725 
-0.4388528 0.8843945 -0.158917 
-0.2161711 0.96335745 -0.15878488 
-0.108637035 0.9890285 -0.10010287 
-0.023826947 0.99940467 -0.02495473 
0.031464577 0.99852866 0.04416436 
0.064508975 0.9493399 0.30755883 
0.042805962 0.43524754 0.8992927 
0.027816907 -0.6680288 0.7436154 
0.12151707 -0.88884324 0.44180462 
0.5328606 0.83574873 -0.13260442 
0.35979158 0.9308387 0.06394834 
0.21471764 0.9262759 0.30969247 
-0.003147182 0.9501505 0.3117758 
-0.10647982 0.9720757 0.20911981 
-0.08049226 0.9867751 0.14069849 
-0.013375666 0.991409 0.13011254 
0.048540384 0.9903664 0.1296854 
0.069934376 0.98738927 0.14202733 
0.03280546 0.98328054 0.17911808 
-0.02332194 0.9826348 0.1840793 
-0.04322049 0.98279285 0.17958374 
-0.09585259 0.9874496 0.12552197 
-0.20413953 0.97883403 0.014527909 
-0.2932566 0.95330226 -0.07221767 
-0.28754967 0.9550979 -0.07143704 
-0.21530052 0.976104 -0.029442256 
-0.18786356 0.9821647 0.0077335937 
-0.34436896 0.9386675 0.01770252 
-0.66243607 0.7486343 0.026931096 
-0.89526796 0.44484907 -0.02459293 
-0.9267073 0.375617 0.0111948475 
-0.69724536 0.71601486 0.034229856 
-0.37342164 0.9272825 0.026526438 
-0.20036237 0.9785821 -0.0472454 
-0.10610257 0.993128 -0.0493868 
-0.031279065 0.9992232 -0.023973836 
0.033143453 0.99944985 -0.0013028794 
0.13047127 0.97734165 0.16667524 
0.28196684 0.8061385 0.5202264 
0.47944337 0.28743285 0.8291661 
0.68466353 -0.0969111 0.7223878 
0.116396405 0.9901677 -0.077588715 
0.103412166 0.9937603 0.041791443 
0.042651076 0.98153234 0.18648115 
-0.031275876 0.9766559 0.21252124 
-0.052984223 0.976316 0.2097612 
-0.03820281 0.9776293 0.20683709 
-0.00067931594 0.97389364 0.22700378 
0.056998823 0.9604135 0.27268487 
0.098827444 0.94269204 0.31869248 
0.11506949 0.93570817 0.33348057 
0.09042528 0.95138574 0.29442903 
0.078944184 0.9624125 0.2598657 
0.027350694 0.9818714 0.1875648 
-0.09026584 0.99317324 0.0738858 
-0.20445703 0.97881836 -0.010582294 
-0.21142736 0.97738194 -0.004799709 
-0.13845696 0.98956215 0.03995465 
-0.10598312 0.99310327 0.050135303 
-0.2234342 0.97386724 0.040742025 
-0.45337048 0.8903831 0.040904243 
-0.62388164 0.78148735 0.007018304 
-0.68195444 0.73112845 0.019732995 
-0.5567981 0.8260875 0.086922206 
-0.37311473 0.9195498 0.12334306 
-0.2363826 0.97118074 0.030515647 
-0.14236781 0.9898129 0.001402301 
-0.09363814 0.99552506 -0.012718051 
-0.054083053 0.99719405 -0.051759697 
0.031692833 0.9993758 0.015605451 
0.11916627 0.98115623 0.15209158 
0.15435304 0.95633686 0.24818368 
0.13615078 0.9755501 0.1725258 
-0.14157999 0.97544426 -0.16871189 
-0.09779624 0.99265444 -0.07122576 
-0.091056906 0.9941774 0.05761979 
-0.071325436 0.9870381 0.14376591 
-0.053785 0.97636515 0.20932825 
-0.05956267 0.96942854 0.23803478 
-0.05770182 0.9592826 0.2764915 
-0.022590697 0.939422 0.34201774 
0.023461578 0.91005 0.413834 
0.09098125 0.9037694 0.41823837 
0.10968098 0.9173532 0.38266596 
0.09902554 0.9289717 0.35665908 
0.060245857 0.96111345 0.2695023 
-0.036067575 0.9871761 0.15550725 
-0.15238413 0.9863519 0.062362824 
-0.18777753 0.9806649 0.055100415 
-0.14833362 0.9855625 0.08163258 
-0.12521683 0.99008894 0.06359877 
-0.18530327 0.98168135 0.044323336 
-0.31523272 0.9483102 0.036552444 
-0.42672017 0.9043591 0.006678471 
-0.48451218 0.8745475 0.020367764 
-0.44515118 0.8903343 0.0956317 
-0.38512686 0.9124021 0.13856356 
-0.27243787 0.9598032 0.067493804 
-0.17187323 0.9843222 0.039616067 
-0.13659471 0.9906022 0.0070259813 
-0.078796364 0.9952413 -0.057324667 
0.005746637 0.9994387 -0.033006415 
0.048095208 0.9984523 0.027929215 
0.03477345 0.9989125 0.031058226 
-0.028296277 0.99770486 -0.061517734 
-0.3918255 0.90186477 -0.18196952 
-0.2946122 0.94440067 -0.14598297 
-0.21389957 0.97518647 -0.05708254 
-0.116700724 0.99122095 0.06214597 
-0.074436136 0.9856165 0.1517213 
-0.08433506 0.9792794 0.18411823 
-0.119160645 0.9650077 0.23358285 
-0.12243791 0.94504315 0.3031542 
-0.084373355 0.91885465 0.3854703 
0.004309063 0.9280181 0.37251016 
0.057619575 0.93628436 0.34648478 
0.051321983 0.9334194 0.35509753 
0.020315347 0.954985 0.29595768 
-0.02165622 0.9797298 0.19915013 
-0.0859359 0.99294895 0.08165518 
-0.13899837 0.9898153 0.030743223 
-0.14203106 0.98920643 0.03602443 
-0.12484241 0.9917949 0.0275189 
-0.13692838 0.9901675 0.028619224 
-0.19230074 0.9811417 0.01953217 
-0.28490087 0.95853996 0.0057095564 
-0.3581696 0.9318212 0.058513574 
-0.3957295 0.9094178 0.12789603 
-0.4302772 0.8892431 0.15526848 
-0.3156089 0.9427319 0.107924305 
-0.18599357 0.97934824 0.07926829 
-0.14522098 0.98879427 0.034593098 
-0.049755625 0.99787915 -0.04197189 
0.0342818 0.9985438 -0.041655857 
0.046643168 0.9989063 0.0032598525 
0.016897121 0.9998246 -0.00808915 
-0.036839433 0.99783736 -0.05443909 
-0.5035508 0.85639435 -0.11412857 
-0.3976403 0.90580964 -0.146257 
-0.29407272 0.9483397 -0.11905133 
-0.1649353 0.9862686 -0.008408311 
-0.09596953 0.9911132 0.09211202 
-0.08195702 0.9866864 0.14047432 
-0.11845099 0.97165 0.20461096 
-0.16104311 0.94812053 0.27410334 
-0.14774215 0.9335737 0.32651567 
-0.081489064 0.9599185 0.26817164 
-0.014726139 0.97487247 0.22227676 
0.013514337 0.9656558 0.25947312 
-0.024533544 0.96668154 0.25480354 
-0.057894435 0.9765388 0.20741338 
-0.06040069 0.9948137 0.08183933 
-0.090407826 0.99585664 -0.009798598 
-0.11630054 0.9932086 0.003307211 
-0.10095765 0.9937178 0.048296224 
-0.095704906 0.9930315 0.068767786 
-0.128804 0.99038965 0.050378438 
-0.20619294 0.978379 0.016094306 
-0.29820043 0.953309 0.04773282 
-0.38173732 0.92167753 0.06918996 
-0.4520138 0.889365 0.0686553 
-0.31771666 0.9471077 0.045201514 
-0.17942022 0.98369426 0.012410005 
-0.13362584 0.9893103 -0.058388278 
-0.0115114115 0.9916358 -0.12855372 
0.033477124 0.99224216 -0.11972778 
0.023378672 0.9973031 -0.0695699 
-0.004379251 0.99817973 -0.06015004 
-0.033096626 0.9994406 -0.0048053088 
-0.44577542 0.88828677 -0.11059292 
-0.38790765 0.9061666 -0.1684928 
-0.31450197 0.9373207 -0.15006179 
-0.21467912 0.9761336 -0.03280576 
-0.14313093 0.9866498 0.07769021 
-0.13009593 0.98260784 0.13250291 
-0.14729328 0.96875876 0.19952738 
-0.20198156 0.94124585 0.2706653 
-0.19602539 0.9382282 0.28513497 
-0.16079605 0.96393615 0.21206574 
-0.10551077 0.97880495 0.17552362 
-0.04226697 0.9780707 0.20393935 
-0.072818056 0.97962177 0.18718627 
-0.1270894 0.98002774 0.15295076 
-0.08700987 0.9941957 0.063278586 
-0.03880792 0.9990645 -0.019082448 
-0.046437513 0.9989186 -0.002287679 
-0.050304964 0.99630266 0.0696452 
-0.04637574 0.99600106 0.07636332 
-0.08965441 0.99583334 0.016676424 
-0.14207214 0.9893079 -0.032946203 
-0.1991695 0.97962356 -0.025868556 
-0.25718686 0.9661851 -0.018474061 
-0.32692677 0.94402426 -0.044011768 
-0.23712999 0.9702543 -0.048744835 
-0.13932379 0.98828214 -0.06234786 
-0.07903716 0.99116 -0.10656058 
-0.007419676 0.98984295 -0.14197181 
-0.06845432 0.9878423 -0.13957624 
-0.11208028 0.98851097 -0.10141099 
-0.11436879 0.9916265 -0.059972536 
-0.12637794 0.9914221 0.033331234 
-0.3788368 0.9161309 -0.13109833 
-0.34358436 0.92484844 -0.16311106 
-0.26640517 0.9577129 -0.108694665 
-0.19398558 0.98079664 0.020189123 
-0.1388133 0.9836015 0.11514745 
-0.14662975 0.9794387 0.13856247 
-0.15414551 0.97379345 0.16722888 
-0.2017997 0.9543108 0.22038113 
-0.20560287 0.9525273 0.22454226 
-0.19807586 0.9614524 0.19072302 
-0.18343373 0.9608531 0.20763771 
-0.12231912 0.96959597 0.21194755 
-0.12328735 0.9828725 0.13697448 
-0.17389086 0.9797125 0.09962654 
-0.1337346 0.9875466 0.08286548 