# OOMMF OVF 2.0
# Segment count: 1
# Begin: Segment
# Begin: Header
# Title: m
# meshtype: rectangular
# meshunit: m
# xmin: 0
# ymin: 0
# zmin: 0
# xmax: 1.6e-07
# ymax: 1.6e-07
# zmax: 5e-09
# valuedim: 3
# valuelabels: m_x m_y m_z
# valueunits: 1 1 1
# Desc: Total simulation time:  3.628451658386103e-11  s
# xbase: 2.5e-09
# ybase: 2.5e-09
# zbase: 2.5e-09
# xnodes: 32
# ynodes: 32
# znodes: 1
# xstepsize: 5e-09
# ystepsize: 5e-09
# zstepsize: 5e-09
# End: Header
# Begin: Data Text
0.22795103 -0.97352344 -0.017043078 
0.30575618 -0.90506285 -0.2955918 
0.3836016 -0.59866774 -0.70316917 
0.27209237 0.74116987 -0.61370444 
0.28357372 0.9028927 -0.32306477 
0.3657511 0.929215 -0.052779477 
0.32529473 0.93507504 0.14077687 
0.26386285 0.9470246 0.18308751 
0.1830311 0.96086496 0.20793818 
0.06164472 0.9782688 0.19796471 
-0.09385239 0.96214515 0.2558682 
-0.21544696 0.9600568 0.1785321 
-0.10505267 0.99440026 0.011501311 
0.0044758287 0.9986696 -0.051370356 
-0.07489453 0.99717474 -0.005784748 
-0.16354953 0.9864918 0.009256629 
-0.15260199 0.9882508 -0.008545225 
-0.20880023 0.97384584 -0.08959294 
-0.24633622 0.9386366 -0.24141207 
-0.19337897 0.9341721 -0.29987866 
-0.098851785 0.9498604 -0.2966371 
-0.10912733 0.9599612 -0.25800356 
-0.22581223 0.94904166 -0.21983808 
-0.14964558 0.98546267 -0.08043308 
0.12876798 0.99108183 0.034289606 
0.23603174 0.9714277 -0.024847502 
0.08867775 0.9886046 -0.1216437 
-0.105848566 0.9714214 -0.21245345 
-0.34981135 0.8633013 -0.36378992 
-0.8431862 0.40503776 -0.35352707 
-0.45910773 -0.6559676 0.599105 
-0.15380092 -0.8731873 0.46248153 
0.13133457 -0.988468 -0.075381264 
0.2647388 -0.9274794 -0.2639989 
0.46051234 -0.64293575 -0.6120148 
0.4235962 0.7408319 -0.5212815 
0.30551907 0.91393554 -0.26717055 
0.2846021 0.95571136 -0.074949645 
0.19649409 0.9794307 0.04588801 
0.14733715 0.9842585 0.09760683 
0.09183593 0.9829547 0.1592683 
0.019080697 0.9873807 0.15721147 
-0.080542415 0.9804762 0.17938645 
-0.17544931 0.9800786 0.09307779 
-0.094737 0.9939193 -0.056120113 
0.005912755 0.9943721 -0.105778396 
-0.024514154 0.9978698 -0.060457576 
-0.077347614 0.9969035 -0.014175821 
-0.08839867 0.99607605 -0.0042765043 
-0.1447659 0.9871702 -0.06736321 
-0.18440397 0.9614391 -0.2040349 
-0.14007963 0.9561581 -0.2571757 
-0.048667636 0.9749579 -0.2169994 
-0.045799866 0.98755825 -0.15043704 
-0.14852665 0.98202455 -0.11648025 
-0.121955246 0.99242187 -0.015031721 
0.09510178 0.9945653 0.042374942 
0.23480108 0.9713551 -0.036576014 
0.14230011 0.98636764 -0.08264198 
-0.032744408 0.995746 -0.08612604 
-0.24270524 0.9596628 -0.14192091 
-0.58454925 0.81044394 0.038510285 
-0.25263396 -0.10995644 0.96129376 
0.0016290726 -0.67479026 0.7380078 
0.14937824 -0.98653144 -0.06664801 
0.33229774 -0.9295678 -0.1596311 
0.70856565 -0.61067563 -0.3535675 
0.5003574 0.81941634 -0.2796414 
0.22886975 0.9582632 -0.17131978 
0.13473651 0.9861764 -0.096448734 
0.04739131 0.99808836 -0.03967025 
0.02580602 0.9995938 0.012095973 
0.009114806 0.9965966 0.081927754 
-0.018017562 0.99604535 0.08700079 
-0.064027384 0.994502 0.08286304 
-0.12697259 0.991618 -0.023910487 
-0.057437662 0.984094 -0.16810662 
0.0383865 0.97998935 -0.19531381 
0.04476893 0.99169 -0.12061041 
0.0012235331 0.9998442 -0.01761213 
-0.042979166 0.99887323 0.020128373 
-0.09152296 0.99545735 -0.026235739 
-0.123124674 0.98337835 -0.13344462 
-0.09658002 0.9792219 -0.17831689 
-0.03246034 0.99090636 -0.13057911 
-0.030349625 0.9978468 -0.058145314 
-0.11676671 0.9928477 -0.024884753 
-0.13416766 0.99075675 0.020003196 
0.020029085 0.99956375 0.021707695 
0.17959473 0.982703 -0.045172535 
0.13694231 0.98933077 -0.049713917 
-0.004422532 0.999831 -0.017845975 
-0.12416248 0.9907063 -0.055541243 
-0.241808 0.96971476 0.034382787 
-0.19278201 0.8715081 0.45089763 
-0.149415 0.67210275 0.7252262 
0.32192934 -0.9445776 0.064302005 
0.56561625 -0.8240002 -0.03319784 
0.9869555 0.06412639 -0.14767039 
0.37070552 0.9224261 -0.10820151 
0.10994282 0.9841322 -0.13927157 
0.051391914 0.9888877 -0.13949901 
-0.00045349926 0.9954482 -0.09530421 
-0.014948439 0.9989195 -0.0440041 
-0.02494179 0.99940217 0.023945605 
-0.041533567 0.9981627 0.044115882 
-0.075770035 0.99650383 0.03520166 
-0.12342182 0.9887721 -0.08424273 
-0.04840513 0.97422284 -0.22033331 
0.03441076 0.976488 -0.21280777 
0.03467972 0.9941257 -0.10252513 
-0.015385203 0.9995885 0.02421043 
-0.07592508 0.995089 0.06350797 
-0.10927759 0.9936029 0.02849232 
-0.11891163 0.9918773 -0.045160808 
-0.10786304 0.9906765 -0.08322084 
-0.086499 0.9950877 -0.048150428 
-0.10242405 0.9943018 0.029552422 
-0.1652754 0.98426056 0.062572055 
-0.20458978 0.9771301 0.057963714 
-0.12399668 0.9901942 0.06434599 
0.028229466 0.9984545 0.04787115 
0.036097538 0.9991502 0.01989922 
-0.05593931 0.9984333 0.0013384185 
-0.108547755 0.99238515 -0.058215186 
-0.15797473 0.9868366 -0.03460736 
-0.15462272 0.981057 0.116700515 
-0.1531498 0.9519473 0.26521972 
0.5751519 -0.7391403 0.350531 
0.79170126 -0.5763925 0.20243786 
0.6920754 0.7215892 -0.018462073 
0.17023353 0.98344237 -0.062142305 
0.009272803 0.9929163 -0.11845366 
-0.0060834675 0.9925363 -0.1217975 
-0.038285002 0.99611855 -0.07925975 
-0.061674006 0.9975341 -0.033497047 
-0.08026317 0.9963474 0.029149337 
-0.07967725 0.99502015 0.059887525 
-0.0970611 0.99400216 0.050387587 
-0.12680276 0.9900527 -0.060965523 
-0.06255786 0.98144233 -0.18126658 
-0.007259353 0.9875394 -0.15720439 
-0.025133498 0.99836594 -0.051320404 
-0.05976416 0.99698454 0.049497984 
-0.10497621 0.99059045 0.08781062 
-0.1334652 0.9877561 0.08077842 
-0.12524873 0.9915676 0.033263907 
-0.1272539 0.99186647 0.0027360972 
-0.15343936 0.9866058 0.05536645 
-0.17513481 0.969786 0.1698323 
-0.17993584 0.96373785 0.1970599 
-0.21577628 0.96549946 0.14577888 
-0.22105214 0.9640611 0.14738466 
-0.14657758 0.98034286 0.132072 
-0.14496368 0.9868171 0.071955286 
-0.19259146 0.9811483 0.016021045 
-0.2137349 0.9744246 -0.0693842 
-0.2562284 0.96371806 -0.07479751 
-0.25507605 0.9669033 0.0058539603 
-0.22993486 0.96869916 0.09355218 
0.7753567 0.23659666 0.58552873 
0.7410339 0.5704336 0.35422358 
0.28368846 0.9587486 -0.01794852 
0.0056507722 0.99475706 -0.10211036 
-0.06749907 0.9909959 -0.11563323 
-0.055748306 0.99559236 -0.07541991 
-0.067229465 0.99724317 -0.031404544 
-0.0907736 0.9956423 0.021369614 
-0.127032 0.9891593 0.073667705 
-0.1103511 0.9889264 0.09923364 
-0.11274044 0.9905666 0.077893816 
-0.11817855 0.99255157 -0.02958494 
-0.059931286 0.9913624 -0.116656914 
-0.03223303 0.99636024 -0.07891357 
-0.06027952 0.9979807 -0.020022089 
-0.076949 0.9967888 0.022157224 
-0.106168024 0.9923345 0.063250095 
-0.13948111 0.98591375 0.09229983 
-0.13173267 0.9892035 0.06420992 
-0.13939963 0.9888477 0.052422848 
-0.1691664 0.97665644 0.13238248 
-0.1599436 0.9506202 0.26596865 
-0.103275634 0.9512486 0.29062045 
-0.094938815 0.9651682 0.24379727 
-0.13207342 0.9689628 0.2089681 
-0.18311809 0.9733387 0.13812876 
-0.2757247 0.9575736 0.0838374 
-0.33233026 0.94283324 0.024940113 
-0.37295374 0.9253304 -0.0683324 
-0.4113477 0.90725935 -0.087598234 
-0.37291434 0.926206 -0.055475663 
-0.29862314 0.9542581 -0.014693809 
0.30173817 0.9142474 0.27038094 
0.2175329 0.9733266 0.07290293 
0.026421642 0.9936753 -0.10913927 
-0.097910926 0.9851205 -0.14124855 
-0.13496886 0.9843102 -0.11365204 
-0.0978496 0.9930194 -0.06586362 
-0.05753878 0.9976813 -0.036350805 
-0.068314396 0.99717844 0.031117925 
-0.12141183 0.98966265 0.07633593 
-0.11225358 0.9904717 0.079780705 
-0.09643324 0.9946171 0.03791463 
-0.07477396 0.9968938 -0.024728842 
-0.03766781 0.99862134 -0.03655987 
-0.043149967 0.9990452 0.0068514007 
-0.06441408 0.9979217 0.0017606128 
-0.059175912 0.9982067 -0.009040852 
-0.09127966 0.99479985 0.04518023 
-0.14534314 0.9845956 0.09719617 
-0.15308452 0.9837842 0.09345523 
-0.14096433 0.98402816 0.10870925 
-0.13026303 0.97806567 0.1625399 
-0.113989845 0.9696045 0.21650298 
-0.07986332 0.97093827 0.22561218 
-0.018370755 0.96721375 0.25329867 
-0.014052745 0.97386855 0.2266775 
-0.13614501 0.9793236 0.14963192 
-0.27657038 0.95436496 0.112678744 
-0.35080132 0.93618655 0.02221133 
-0.4217097 0.90481293 -0.058946934 
-0.4610331 0.88473284 -0.068529494 
-0.41925526 0.90523595 -0.0690871 
-0.3402969 0.93804437 -0.065352224 
0.06637334 0.9947254 0.07820505 
0.019211998 0.9982817 -0.055357788 
-0.04967105 0.98764765 -0.14861034 
-0.11164257 0.9830644 -0.14532807 
-0.12183058 0.98693466 -0.1054392 
-0.05173472 0.9964862 -0.06587096 
0.0020792754 0.99958146 -0.028854137 
-0.034071386 0.9990739 0.026276443 
-0.087677106 0.9950389 0.04701379 
-0.08376432 0.995842 0.035809364 
-0.06610916 0.9978025 0.0044430266 
-0.07074393 0.99749416 -0.0008186695 
-0.0873291 0.9959926 0.019301005 
-0.101694785 0.9942233 0.034326386 
-0.083462715 0.9963361 -0.01866225 
-0.035375733 0.9982013 -0.04840241 
-0.05867335 0.99768686 0.03432767 
-0.12091391 0.9876859 0.09927935 
-0.14016958 0.98541564 0.09648061 
-0.12145452 0.9858983 0.11512316 
-0.10457058 0.983986 0.14434905 
-0.11074475 0.9838201 0.14083253 
-0.10241431 0.9851183 0.13803346 
-0.0143913925 0.98025227 0.19722705 
0.012322372 0.9799724 0.19875227 
-0.106034 0.9799886 0.16846162 
-0.21289934 0.9671434 0.1389514 
-0.27924496 0.95989835 0.024850655 
-0.34237027 0.9392098 -0.025839033 
-0.37538847 0.92657524 -0.023278864 
-0.3610151 0.9317275 -0.03939459 
-0.3146437 0.94746536 -0.057522826 
0.017724942 0.9963906 -0.08301558 
-0.012952359 0.9903614 -0.13790077 
-0.045836493 0.9894146 -0.13768789 
-0.077732585 0.9916417 -0.102978095 
-0.039920747 0.9955087 -0.085842416 
0.050097957 0.9962138 -0.07105169 
0.0635886 0.997597 -0.027511137 
-0.02151561 0.99955827 0.020501653 
-0.09327239 0.9946467 0.0444773 
-0.09909536 0.9945718 0.0317364 
-0.0810692 0.99668163 0.007324883 
-0.10448638 0.9945262 -0.00045070407 
-0.15941864 0.98719645 0.0053928443 
-0.18138468 0.9833679 -0.009339523 
-0.14709105 0.9860737 -0.07760764 
-0.05779041 0.99303335 -0.10268995 
-0.043775026 0.9990279 0.005201852 
-0.096132055 0.99221915 0.07912005 
-0.12877633 0.9895586 0.06473367 
-0.11840052 0.99042434 0.071000725 
-0.101688795 0.98898405 0.107563764 
-0.10016941 0.9882897 0.11510693 
-0.07503915 0.99028516 0.11706647 
0.009599782 0.9863566 0.16434275 
0.023905804 0.98603404 0.16481982 
-0.062200002 0.9862412 0.15316486 
-0.12830146 0.9844526 0.119966075 
-0.173419 0.98468447 0.017955108 
-0.21678197 0.9762107 -0.0042568357 
-0.26819775 0.9633592 -0.0030051426 
-0.2960462 0.95486724 -0.024190605 
-0.29675585 0.95328534 -0.056420423 
-0.07308877 0.95906854 -0.27357924 
-0.07256032 0.96980536 -0.2328362 
-0.07699939 0.9883251 -0.13147081 
-0.085992575 0.9940768 -0.06645706 
-0.027324716 0.9973652 -0.06720153 
0.043051768 0.9957606 -0.08128537 
0.027859768 0.997667 -0.0623245 
-0.054392118 0.9984355 -0.012967333 
-0.11923457 0.99216586 0.037283063 
-0.11866568 0.9924378 0.031396177 
-0.076382086 0.997034 -0.009434883 
-0.08046342 0.9950565 -0.058208257 
-0.13935602 0.98779494 -0.0695783 
-0.18668662 0.97791886 -0.09392971 
-0.19001622 0.9714496 -0.14205478 
-0.11026983 0.98432136 -0.13766725 
-0.06760923 0.99743736 -0.023403639 
-0.097534575 0.9936944 0.05530349 
-0.12771192 0.9893422 0.06994045 
-0.11292401 0.9899814 0.084765084 
-0.09976624 0.9889704 0.1094727 
-0.11192266 0.98650837 0.11947633 
-0.082212225 0.9868444 0.13920975 
-0.001188009 0.98416305 0.1772621 
0.0031887912 0.98850507 0.15115416 
-0.0665958 0.9919311 0.10787832 
-0.09912021 0.9932894 0.05959396 
-0.11233647 0.9935822 -0.013231769 
-0.13106099 0.9913741 0.0007741332 
-0.18224573 0.98315924 0.013584801 
-0.22026059 0.97543484 0.003486522 
-0.24574871 0.96887535 -0.02980317 
-0.02452343 0.90991974 -0.4140589 
0.027388258 0.9625455 -0.2697332 
0.01977986 0.9958733 -0.08857392 
-0.044212393 0.9988798 -0.016869638 
-0.035048645 0.9989535 -0.029386217 
-0.0027703124 0.9982393 -0.05925186 
-0.023857703 0.9970212 -0.07334598 
-0.060094267 0.99713707 -0.045894906 
-0.06992294 0.9974679 0.01299242 
-0.030477427 0.9994388 0.013901524 
0.039113495 0.9970308 -0.06633056 
0.05239022 0.98511094 -0.16374348 
-0.020942364 0.98064584 -0.19466694 
-0.13054325 0.9747489 -0.18117136 
-0.20134097 0.96729505 -0.15427959 
-0.15231866 0.9827136 -0.10522918 
-0.087859236 0.9961306 -0.0021873654 
-0.08649019 0.99353313 0.0735626 
-0.11668467 0.9862949 0.11664954 
-0.11090449 0.98283184 0.1474517 
-0.09987355 0.9832542 0.15243539 
-0.11954333 0.9813601 0.1504723 
-0.09212292 0.9779291 0.18753138 
-0.022087457 0.97416216 0.22476724 
-0.027253812 0.9812109 0.19100362 
-0.08568175 0.98838603 0.12550643 
-0.11231173 0.99171686 0.062320475 
-0.10090326 0.99489576 0.0010572625 
-0.07016985 0.99743646 0.01402272 
-0.048886504 0.9987472 0.010680336 
-0.036084224 0.99934864 -0.00058428926 
-0.062358495 0.99800926 -0.009437776 
0.45638472 0.6960935 -0.55422646 
0.55029947 0.80774575 -0.21146475 
0.45787743 0.8835063 0.098817386 
0.164195 0.97231597 0.16625832 
0.042018928 0.99713254 0.06293734 
0.020789968 0.99885345 -0.043125067 
-0.0010276085 0.9939702 -0.10964597 
0.005488548 0.9946753 -0.10291234 
0.08168286 0.9946189 -0.06372818 
0.22836621 0.9672792 -0.110543296 
0.376104 0.88629353 -0.2702401 
0.42857322 0.8173613 -0.38502666 
0.31854048 0.8610794 -0.3963262 
0.06880749 0.9616203 -0.26561636 
-0.104501426 0.9857307 -0.1319641 
-0.10383164 0.99280995 -0.059561215 
-0.04511684 0.99864596 0.025898976 
-0.027540302 0.9935735 0.10978778 
-0.048619505 0.9860162 0.15939948 
-0.045061402 0.9823533 0.18152519 
-0.018374301 0.9869613 0.15990576 
-0.033181395 0.99053997 0.13315289 
-0.030330615 0.9847516 0.17130184 
0.005928669 0.97343326 0.22889462 
-0.0034573115 0.9723086 0.23367545 
-0.0452896 0.98006946 0.19342412 
-0.08824672 0.9862706 0.13958131 
-0.07845803 0.99539137 0.055140432 
-0.008710851 0.9998932 -0.011740217 
0.13107353 0.9883978 -0.07674477 
0.28579277 0.95591986 -0.06737758 
0.2648339 0.9642667 0.007263129 
0.6909659 -0.7119686 -0.12516749 
0.8115851 -0.58259463 0.04373922 
0.9445494 -0.18210115 0.27325034 
0.5319261 0.6981889 0.47915244 
0.21449316 0.955882 0.2007043 
0.11363108 0.99333215 -0.019473605 
0.09022175 0.98709434 -0.13230619 
0.14323018 0.9789041 -0.14571157 
0.35820058 0.9199185 -0.15950683 
0.72600687 0.6186749 -0.3002589 
0.8797737 0.09894931 -0.46498117 
0.87458223 0.0003207662 -0.4848771 
0.7690639 0.35312447 -0.53277004 
0.35288948 0.87241006 -0.3381859 
0.04710428 0.98674583 -0.15528682 
-0.026114203 0.99689674 -0.07426297 
-0.015631337 0.9997323 0.017057948 
-0.0071272785 0.9937047 0.11180461 
-0.0006221737 0.98836446 0.1521031 
0.022036333 0.98776 0.15441686 
0.06740775 0.9912283 0.1136778 
0.0654193 0.99520665 0.0726927 
0.059116576 0.99194825 0.11199912 
0.069597885 0.9784646 0.19432732 
0.05079721 0.97126174 0.23253024 
0.025155507 0.975074 0.22044969 
-0.01451834 0.984112 0.17695454 
-0.01874492 0.9981662 0.05755865 
0.05175847 0.99054134 -0.12707907 
0.33364508 0.8797037 -0.33882523 
0.75189424 0.62000656 -0.2241582 
0.77588725 0.6268157 0.07142181 
0.28207755 -0.9514785 -0.1229674 
0.54917693 -0.82638866 -0.12444553 
0.92390716 -0.38241166 -0.012531368 
0.76968527 0.33761182 0.5418514 
0.40429112 0.8660347 0.29416433 
0.23632057 0.9712555 0.028556807 
0.20520703 0.9734559 -0.10135905 
0.287694 0.9483979 -0.13331835 
0.5965471 0.7852417 -0.16591318 
0.9617056 0.076896414 -0.2630765 
0.84782 -0.4579111 -0.2674296 
0.8319668 -0.4650361 -0.30260974 
0.8916973 -0.017408466 -0.45229754 
0.5040961 0.8026385 -0.3188397 
0.13871975 0.97352755 -0.18166217 
0.023354778 0.9922625 -0.12194215 
-0.01038093 0.9997632 -0.019127524 
-0.039097954 0.99576783 0.08317331 
-0.028772593 0.99265295 0.117526144 
0.034380578 0.9937846 0.10587813 
0.11198952 0.9924163 0.05067744 
0.12390847 0.99225587 -0.008660223 
0.105429105 0.9942773 0.017247839 
0.092488565 0.9892012 0.113696314 
0.07682955 0.9817633 0.17389141 
0.06020892 0.9826202 0.17559224 
0.028907813 0.99195915 0.123212494 
0.00087481446 0.9998216 -0.01886608 
0.020638393 0.9427528 -0.3328534 
0.25570756 0.26992646 -0.92830676 
0.5644986 -0.60497 -0.5615628 
0.45843786 -0.87634414 -0.14783739 
0.052201122 -0.9981199 -0.032123566 
0.26462713 -0.95955837 -0.09602239 
0.6418152 -0.76410645 -0.06492111 
0.7707578 0.042057373 0.63573873 
0.4889948 0.81370234 0.31428117 
0.29581496 0.9539942 0.04887442 
0.24402645 0.96855146 -0.04857195 
0.328152 0.9417807 -0.07324904 
0.6532965 0.7503847 -0.100631826 
0.98131377 -0.026019054 -0.19064713 
0.85210323 -0.48405844 -0.19901644 
0.8496101 -0.4678362 -0.24349944 
0.91684675 0.019987203 -0.39873874 
0.5383346 0.7958113 -0.2772732 
0.2039583 0.96106845 -0.18640971 
0.064413205 0.98730606 -0.14518154 
-0.014692972 0.99839175 -0.054756172 
-0.07010024 0.9973014 0.021817997 
-0.051504694 0.9978007 0.04172583 
0.07548072 0.99634165 0.040075097 
0.20306957 0.97914153 0.006695087 
0.23357959 0.9708842 -0.053145602 
0.1925113 0.9806538 -0.035461098 
0.13162655 0.9901368 0.047996018 
0.10029801 0.99004096 0.09878887 
0.0779128 0.990479 0.11349485 
0.07915692 0.9925679 0.09242877 
0.11838419 0.9927188 0.02223912 
0.25176638 0.94097346 -0.22623627 
0.35507727 -0.5309894 -0.76939607 
0.28831774 -0.9066356 -0.30803382 
0.20565085 -0.9748433 -0.085954726 
0.08693248 -0.99606395 0.017302258 
0.20340176 -0.9783154 -0.039075047 
0.5216851 -0.84952265 -0.078460075 
0.9320062 0.14989297 0.32999486 
0.5506282 0.82325184 0.13807657 
0.29551536 0.95532614 0.004754193 
0.20505245 0.9783472 -0.02811461 
0.2677383 0.9634129 -0.0123235015 
0.5198427 0.85425985 0.0019344556 
0.9039446 0.42206308 -0.068898186 
0.9812905 0.020555792 -0.19143279 
0.9739434 0.10333637 -0.20188071 
0.78137994 0.58972627 -0.20412815 
0.36207289 0.92406857 -0.122476764 
0.13727723 0.98605645 -0.09406263 
0.036951225 0.9949147 -0.09369868 
-0.020284554 0.997541 -0.06708574 
-0.040647868 0.9982288 -0.04344062 
0.03166541 0.9988424 -0.0362127 
0.2717744 0.96234095 -0.006216396 
0.5240567 0.85132974 0.024542239 
0.60634357 0.79502684 -0.016731033 
0.5145824 0.8572821 0.016501946 
0.31545576 0.9473714 0.05454559 
0.20254074 0.9781451 0.047004197 
0.16129762 0.9862699 0.035422046 
0.19938125 0.97957456 0.026092261 
0.35621968 0.9332225 0.046941347 
0.7303823 0.6822775 0.03223526 
0.44589335 -0.8318595 -0.33043745 
0.18716657 -0.97259873 -0.13791454 
0.096904986 -0.99465996 -0.03551028 
0.20950101 -0.9753141 -0.0697982 
0.29413927 -0.94434136 -0.14731444 
0.5721979 -0.73132473 -0.37115204 
0.8509739 0.497448 -0.16849045 
0.45285708 0.89050156 -0.043904703 
0.20780447 0.97792226 -0.022032475 
0.11255151 0.993644 -0.0019346063 
0.15317385 0.9879397 0.022647696 
0.28715873 0.95770735 0.018347649 
0.5004883 0.86223376 -0.07787448 
0.61790675 0.76339614 -0.18819594 
0.55602187 0.81870306 -0.14340538 
0.32925147 0.9412913 -0.07459412 
0.07852538 0.99635404 -0.033353824 
-0.008509547 0.9994412 -0.032325733 
-0.0106815845 0.99666804 -0.08086247 
0.0021318116 0.99266255 -0.12089956 
0.063951515 0.9906326 -0.12065434 
0.26270744 0.95914674 -0.10498767 
0.6877709 0.7226861 -0.06852731 
0.98097634 0.18974446 0.041018754 
0.9980842 -0.007238705 0.06144492 
0.9478241 0.28675854 0.13928045 
0.60289145 0.79334444 0.084419146 
0.3357199 0.9419369 0.006868532 
0.25680065 0.9664616 -0.0023326108 
0.29495868 0.9545805 0.04213713 
0.47754434 0.8540042 0.20646596 
0.83994305 0.26876947 0.47144327 
0.44208598 -0.88898987 -0.11940298 
0.11925881 -0.9882667 -0.09542704 
-0.01924817 -0.9991357 -0.03684203 
0.34748435 -0.9149083 -0.20542057 
0.39050695 -0.7937555 -0.4663226 
0.3247892 -0.040835045 -0.94490457 
0.30934146 0.8876902 -0.34104857 
0.19978707 0.9782177 -0.056348845 
0.11141252 0.9929311 0.04092719 
0.06562839 0.99374855 0.09031511 
0.07788569 0.99249274 0.094297566 
0.11428621 0.9920925 0.05187758 
0.1688031 0.9844837 -0.047930762 
0.2205082 0.9690285 -0.11117611 
0.21317486 0.9746224 -0.06832026 
0.11133013 0.99378 -0.0026103759 
-0.016439332 0.9995331 0.02575441 
-0.041705217 0.99912894 0.0014567531 
-0.0059383153 0.9961422 -0.087553434 
0.02667419 0.98714286 -0.1575996 
0.13815597 0.9759799 -0.1684527 
0.46824056 0.86099213 -0.1986037 
0.93470794 0.23451865 -0.26706195 
0.8973776 -0.41736215 -0.14325616 
0.82366073 -0.5624059 -0.072681434 
0.96245915 -0.2702546 -0.025195569 
0.75455207 0.65553224 -0.030475892 
0.3831092 0.92149717 -0.06379866 
0.2851243 0.9577209 -0.03840576 
0.30154935 0.9513036 0.06395012 
0.42965466 0.8384188 0.335337 
0.6714836 0.15749417 0.7240894 
0.533351 -0.8431903 -0.067578636 
0.15245487 -0.9803461 -0.12521586 
-0.05868967 -0.99347794 -0.09776027 
0.75145394 -0.63752 -0.16995652 
0.751686 -0.22929062 -0.6183802 
0.29037586 0.7446296 -0.60100627 
0.030439792 0.9740575 -0.22424443 
0.030075522 0.9983965 -0.04795768 
0.06255184 0.9947602 0.08086716 
0.07829167 0.98072344 0.1790308 
0.068025514 0.9799457 0.18729427 
0.0471086 0.99176526 0.11909004 
0.037565026 0.99916446 0.01610366 
0.08505945 0.9958307 -0.032957505 
0.12950413 0.9915749 -0.0028269747 
0.082987376 0.9951005 0.053742044 
0.009273341 0.9955529 0.093747325 
-0.006281789 0.996539 0.08288981 
0.014356232 0.9998668 -0.0077756247 
0.022493502 0.99548775 -0.09218502 
0.121481046 0.9819135 -0.14521833 
0.47975245 0.8426988 -0.24432816 
0.92505527 0.1202418 -0.36029813 
0.84955823 -0.4719763 -0.2355617 
0.82059026 -0.55310434 -0.14390007 
0.9897269 -0.13363157 -0.05082729 
0.6567173 0.7526505 -0.047324475 
0.31871763 0.9442703 -0.082297154 
0.24519528 0.96658635 -0.074767806 
0.2588757 0.9643037 0.055693965 
0.37541676 0.86499584 0.33293316 
0.6708904 0.35230786 0.65252227 
0.86231226 -0.4991878 0.08502468 
0.4867429 -0.8673846 -0.10356345 
0.18977134 -0.9680166 -0.16410576 
0.8827778 0.46976292 0.0051222076 
0.66426986 0.6669542 -0.33751687 
0.21897572 0.935754 -0.27643108 
0.0025821384 0.9921757 -0.12482289 
-0.0034662075 0.99999166 0.0021516897 
0.028231213 0.98985165 0.13927272 
0.05842418 0.96949387 0.23805119 
0.04499853 0.9677845 0.24772605 
0.017628493 0.9825076 0.18538634 
0.0037864079 0.995534 0.09432758 
0.05129703 0.9981176 0.033615373 
0.09558119 0.99431485 0.046928804 
0.05159497 0.9929536 0.10668259 
0.00928453 0.9864726 0.16366361 
0.0093536405 0.987002 0.16043542 
0.009143938 0.99821085 0.059089582 
-0.017764002 0.9982821 -0.055833425 
0.03040108 0.9877858 -0.15282358 
0.3294364 0.89564836 -0.29880735 
0.7921089 0.412628 -0.4497796 
0.9243315 -0.0346023 -0.38001853 
0.95950377 0.004734769 -0.28165624 
0.8320777 0.55018586 -0.07030179 
0.39410987 0.9188462 -0.019980388 
0.18322176 0.98027396 -0.07411383 
0.14534579 0.9844397 -0.098758966 
0.17164972 0.9851477 0.0045067417 
0.24629414 0.94454676 0.21718784 
0.46739808 0.69525844 0.5460355 
0.8617361 -0.13985032 0.48770154 
0.85967034 -0.49935058 0.10777726 
0.67010844 -0.71837175 -0.18680666 
0.43019775 0.9027264 0.0038821124 
0.3263499 0.9321797 -0.15664227 
0.12698452 0.9823494 -0.13734859 
-0.0011662241 0.9984838 -0.05503494 
-0.044339918 0.99880487 0.020566188 
-0.051405773 0.98920804 0.13720421 
-0.023185516 0.97032535 0.24068913 
-0.010125395 0.9622289 0.2720537 
-0.026259957 0.9723781 0.23192969 
-0.0433855 0.9877492 0.14989753 
-0.014921947 0.996369 0.08382236 
0.008132334 0.9949526 0.10001568 
-0.04026091 0.986709 0.15743047 
-0.06290838 0.97995377 0.18903214 
-0.025701623 0.98749053 0.15556945 
-0.024289163 0.9988529 0.04126662 
-0.088538066 0.9935253 -0.07119381 
-0.098297775 0.98532337 -0.13955481 
0.09096824 0.9669164 -0.23832257 
0.3828815 0.8570163 -0.3448548 
0.5097278 0.8067281 -0.29894376 
0.46457067 0.874487 -0.13945131 
0.28223285 0.95923275 0.014741281 
0.11524112 0.99319947 0.016562372 
0.049974784 0.99596184 -0.07458242 
0.05314078 0.99245673 -0.11047971 
0.104009755 0.993292 -0.050529107 
0.12693985 0.99058807 0.051202405 
0.20536813 0.9606522 0.18700616 
0.4547144 0.8718991 0.1817331 
0.5799961 0.8034498 -0.13443628 
0.50061613 0.73686564 -0.45432657 
0.042735677 0.99857944 0.031824064 
0.034379803 0.99886614 -0.032933332 
0.004611789 0.9993606 -0.035456996 
-0.029736659 0.99953604 -0.006585412 
-0.067891195 0.997692 -0.0012162079 
-0.097205766 0.99193835 0.0812988 
-0.09743125 0.97947013 0.17648086 
-0.05868301 0.9703747 0.23436978 
-0.04550148 0.9693456 0.24145131 
-0.075081535 0.979719 0.18577822 
-0.088428915 0.98852 0.122509465 
-0.08526033 0.9894286 0.11731105 
-0.12431192 0.9807172 0.15079919 
-0.13699773 0.9785682 0.1537403 
-0.08413309 0.99178857 0.09631821 
-0.07809088 0.9969023 -0.009361433 
-0.15457542 0.9830401 -0.09868512 
-0.19125345 0.97232383 -0.13419624 
-0.09834257 0.98041105 -0.17065416 
0.021560548 0.9817716 -0.18883803 
0.1031489 0.986497 -0.12721612 
0.09612327 0.99492687 -0.02967998 
0.009628396 0.99903774 0.04278839 
-0.033349663 0.9993467 0.013928026 
-0.035276864 0.9954379 -0.088650465 
0.012635306 0.9910293 -0.13304654 
0.07720078 0.9891944 -0.12463721 
0.06297056 0.9943034 -0.085997075 
0.04948879 0.99710625 -0.05770565 
0.108542174 0.9857807 -0.1282772 
0.15880623 0.9366391 -0.31223026 
0.11106602 0.8887322 -0.44476923 
-0.2198427 0.9748069 0.037693854 
-0.18791619 0.98204273 0.016721565 
-0.14074375 0.9899952 0.010039391 
-0.09376903 0.99559397 0.00034326402 
-0.09301512 0.99554574 -0.015390509 
-0.10897693 0.992125 0.06174204 
-0.11380622 0.98470247 0.13194385 
-0.055240158 0.9833749 0.17298129 
-0.03155618 0.9810547 0.19114375 
-0.07236989 0.9878018 0.13787748 
-0.10448787 0.9904082 0.09041034 
-0.11408899 0.9896139 0.08745414 
-0.13679445 0.9839928 0.1142169 
-0.13572703 0.9835254 0.11939867 
-0.08147957 0.9941417 0.071017094 
-0.054618943 0.99813086 -0.027413536 
-0.11652647 0.9861626 -0.11791934 
-0.17796631 0.9741907 -0.13885418 
-0.14888611 0.97954035 -0.13540176 
-0.09208397 0.98842615 -0.12055908 
-0.029094238 0.9958854 -0.08582529 
-0.032748573 0.99878114 -0.036928788 
-0.094808534 0.9954918 0.0027171192 
-0.113585316 0.99330777 -0.020934995 
-0.08504196 0.9917908 -0.09549356 
0.0020473276 0.98805654 -0.15407874 
0.04421691 0.9834595 -0.17564881 
-0.0148219755 0.9903442 -0.1378358 
-0.06530489 0.98861605 -0.13554947 
-0.03541872 0.9752666 -0.21817581 
0.037477408 0.94275486 -0.3313742 
0.054322917 0.9239508 -0.3786346 
-0.32393637 0.9460711 0.0038592366 
-0.30938908 0.9509354 -0.0005552725 
-0.26246583 0.9648961 0.009340662 
-0.1974813 0.98030204 -0.0030307204 
-0.16779363 0.9858209 -0.0015828656 
-0.1552644 0.9837662 0.08998476 
-0.13020644 0.98124355 0.14215319 
-0.048257638 0.9857025 0.16143698 
-0.017740589 0.98751616 0.15651563 
-0.06271474 0.99325967 0.09747921 
-0.09674593 0.99212503 0.079550564 
-0.11342031 0.98901385 0.09480268 
-0.12436074 0.98714024 0.100442484 
-0.122751325 0.98801744 0.093561284 
-0.08597263 0.9930443 0.08044708 
-0.038875557 0.99919736 0.009657915 
-0.054889627 0.99482846 -0.08546019 
-0.11873164 0.98760796 -0.10263253 
-0.13518672 0.9867686 -0.08951255 
-0.1238278 0.98912483 -0.07936617 
-0.097885445 0.99435234 -0.041010875 
-0.09343378 0.9956084 0.0058456776 
-0.123010986 0.9917432 0.03624654 
-0.1352015 0.99068505 0.016240144 
-0.10312483 0.9942733 -0.028036239 
-0.034253858 0.9963796 -0.07781082 
-0.057407357 0.99423444 -0.090567105 
-0.14720306 0.98603404 -0.07789854 
-0.1890604 0.97557867 -0.11181506 
-0.15311645 0.9731526 -0.17184143 
-0.08398822 0.9744219 -0.2084416 
-0.05551712 0.9799254 -0.19147904 
-0.36451638 0.93090266 -0.023412187 
-0.394203 0.918355 -0.03504722 
-0.38092485 0.9241677 -0.028466968 
-0.3233504 0.9454935 -0.03855548 
-0.26397166 0.96450484 -0.007033612 
-0.21938033 0.9698146 0.10645112 
-0.15976776 0.97372967 0.16224952 
-0.053552788 0.9772521 0.20520826 
-0.038575083 0.9788609 0.20085664 
-0.089000516 0.988253 0.12423795 
-0.09764756 0.988623 0.11440911 
-0.1010382 0.98359793 0.14942057 
-0.11114635 0.98219544 0.1514555 
-0.12585254 0.98583555 0.110857844 
-0.10971458 0.9906929 0.08056319 
-0.049955525 0.99854374 0.02036788 
-0.012532383 0.9972805 -0.072626404 
-0.0514956 0.9944071 -0.092209734 
-0.100380965 0.99282277 -0.06501334 
-0.13780536 0.98953396 -0.04280459 
-0.15476869 0.987506 0.029644215 
-0.12379072 0.98865706 0.0850472 
-0.122627296 0.98795855 0.0943425 
-0.12968016 0.9885822 0.07673604 
-0.088044256 0.9948456 0.05030405 
-0.06434139 0.9977942 0.016335951 
-0.13151641 0.99075794 0.033198856 
-0.19618748 0.98056644 -0.0002855554 
-0.2188446 0.9736602 -0.06397678 
-0.19862773 0.97594583 -0.08987172 
-0.16830099 0.98258924 -0.07869734 
-0.17684905 0.9840427 -0.019609688 
-0.3896489 0.91890234 -0.06158151 
-0.44182235 0.8923587 -0.09213586 
-0.4472389 0.8888517 -0.099599876 
-0.38319856 0.9198665 -0.08369401 
-0.3092638 0.95094365 -0.0078746425 
-0.25453436 0.96188444 0.09995308 
-0.16781165 0.974039 0.15194541 
-0.06132607 0.96860904 0.24090616 
-0.04286936 0.96260643 0.26749048 
-0.070141524 0.9752349 0.20975497 
-0.08660431 0.9760225 0.1996997 
-0.1074161 0.9750049 0.19449238 
-0.11238367 0.9797658 0.16561662 
-0.123116836 0.98642045 0.10870597 
-0.12239645 0.9902755 0.066132426 
-0.077731915 0.99684095 0.016308842 
-0.032408588 0.998383 -0.046703637 
-0.04557361 0.9967111 -0.06700899 
-0.085842535 0.9950524 -0.05001961 
-0.1202197 0.99251926 -0.021280915 
-0.13159636 0.98882407 0.07006691 
-0.080429226 0.98955876 0.119602315 
-0.08344946 0.990576 0.10860683 
-0.09633923 0.9907727 0.095331624 
-0.03932289 0.9971231 0.064802356 
-0.02438573 0.9994752 0.021322845 
-0.06699405 0.99749017 0.022915166 
-0.11057233 0.9932107 -0.036144644 
-0.14385512 0.9876458 -0.062141035 
-0.124227814 0.9914844 -0.03906742 
-0.07619773 0.9970909 -0.001965772 
-0.1019604 0.9914107 0.08190806 
-0.33292755 0.9415951 -0.050577655 
-0.38248232 0.9185465 -0.09989784 
-0.39263046 0.911385 -0.12336445 
-0.34457588 0.9349826 -0.08411299 
-0.30666593 0.9517087 0.0143743 
-0.26654762 0.96060705 0.07865494 
-0.19173282 0.9747574 0.114396885 
-0.1371863 0.9713324 0.19414766 
-0.08915621 0.962938 0.2545617 
-0.07895853 0.94907796 0.3049865 
-0.13462141 0.9449753 0.29815915 
-0.15719053 0.96959573 0.18755105 
-0.11248672 0.98843384 0.10171288 