# OOMMF OVF 2.0
# Segment count: 1
# Begin: Segment
# Begin: Header
# Title: m
# meshtype: rectangular
# meshunit: m
# xmin: 0
# ymin: 0
# zmin: 0
# xmax: 1.6e-07
# ymax: 1.6e-07
# zmax: 5e-09
# valuedim: 3
# valuelabels: m_x m_y m_z
# valueunits: 1 1 1
# Desc: Total simulation time:  3.1389830877804815e-11  s
# xbase: 2.5e-09
# ybase: 2.5e-09
# zbase: 2.5e-09
# xnodes: 32
# ynodes: 32
# znodes: 1
# xstepsize: 5e-09
# ystepsize: 5e-09
# zstepsize: 5e-09
# End: Header
# Begin: Data Text
-0.16824506 -0.9658765 -0.19691665 
-0.026338313 -0.99186164 -0.12456653 
0.22173572 -0.9588011 -0.17757727 
0.77038133 0.31152624 -0.556295 
0.18313411 0.9784709 -0.09516613 
-0.037508864 0.9964961 0.07475777 
-0.17704561 0.97897 0.10135484 
-0.2650721 0.96212417 0.06367135 
-0.37110347 0.9285066 0.0125578735 
-0.31393993 0.93477476 -0.16624655 
-0.08326842 0.9765569 -0.19850194 
0.030996364 0.98827034 -0.14953597 
0.029554348 0.98860496 -0.14760368 
0.0296064 0.99382967 -0.10689278 
0.017666742 0.99935955 -0.03111886 
0.0580685 0.99177724 -0.114044346 
0.16403018 0.9582375 -0.23425405 
0.25048068 0.94764125 -0.1980795 
0.3272976 0.9437921 -0.046182297 
0.32935357 0.9437423 0.029609676 
0.3154298 0.9480435 -0.041443672 
0.27526644 0.960802 -0.032984097 
0.21999621 0.9753607 0.016535576 
0.18573982 0.98228693 0.024764748 
0.056698136 0.99814874 -0.022013538 
-0.15227152 0.9878782 0.030169731 
-0.13245581 0.97372484 0.18524428 
0.114417665 0.98831815 0.10067701 
0.29856226 0.9316174 -0.207243 
0.3815039 0.8477722 -0.36842522 
-0.09514331 -0.95821565 0.26976028 
-0.21931228 -0.9660603 0.136491 
0.043055195 -0.9922679 -0.11640736 
0.23101376 -0.9696832 -0.07966986 
0.50448495 -0.8344827 -0.22166091 
0.69632655 0.5163512 -0.49850866 
0.21278428 0.97293353 -0.09012964 
0.02304987 0.9960989 0.08518111 
-0.06904526 0.98961395 0.12608369 
-0.13595602 0.98581237 0.09843747 
-0.23276827 0.97148985 0.04501603 
-0.20047346 0.9710047 -0.13023216 
-0.006225814 0.9882554 -0.15268436 
0.07007062 0.9955645 -0.06278174 
0.01987383 0.9997907 -0.004851334 
-0.02576626 0.9995741 0.013700001 
-0.026530176 0.9995417 0.014580411 
0.009109904 0.995785 -0.09126524 
0.08697128 0.9762411 -0.19846757 
0.14882268 0.97596514 -0.15919735 
0.20165297 0.9786618 -0.03946042 
0.19666052 0.9803045 0.018108193 
0.18781112 0.98012304 -0.06392131 
0.20144492 0.97498447 -0.09394361 
0.19173789 0.98097503 -0.030408757 
0.119336255 0.9926012 0.022397835 
-0.03868156 0.99895597 -0.024308309 
-0.20411108 0.97850704 -0.029371677 
-0.1656153 0.98059773 0.10487937 
0.048458397 0.9929192 0.10845825 
0.18887687 0.9798687 -0.064675756 
0.088117555 0.9947466 -0.05210166 
-0.62576115 -0.59667444 0.5023969 
-0.5244267 -0.7683008 0.36700234 
0.1961622 -0.98028296 0.02378911 
0.45514247 -0.8887947 0.05375147 
0.7715548 -0.59620667 -0.22190309 
0.6760188 0.6618175 -0.3240314 
0.23953255 0.9692336 -0.056661375 
0.07134825 0.991689 0.107062116 
0.0032783283 0.98882264 0.14906064 
-0.025764892 0.9931087 0.11433 
-0.100883536 0.9941723 0.038001314 
-0.09312261 0.98753726 -0.12687948 
0.042992152 0.99120885 -0.12512636 
0.08849434 0.99603665 0.008928374 
0.025798062 0.9942557 0.10387544 
-0.03309835 0.99479663 0.09635533 
-0.028930109 0.99904186 0.032842226 
-0.012073759 0.99643654 -0.08347721 
0.028883995 0.98332435 -0.17955238 
0.071583055 0.9888656 -0.13046317 
0.09193177 0.99534196 -0.029032685 
0.0594186 0.99819213 0.009051263 
0.046224624 0.99578404 -0.07923147 
0.084255256 0.9848138 -0.15179862 
0.09981225 0.9892081 -0.1072605 
0.03194972 0.9994189 -0.011880198 
-0.09623819 0.9950866 -0.02325737 
-0.20801687 0.9744333 -0.08490473 
-0.19733578 0.97990704 -0.028998304 
-0.06824738 0.9971999 0.030573547 
0.03437905 0.99927175 -0.016557552 
-0.07956724 0.9948492 0.06280206 
-0.5330961 0.7302024 0.4273325 
-0.71848845 0.4552361 0.52586544 
0.2864962 -0.91116726 0.29613212 
0.6442718 -0.67981595 0.35037723 
0.99503773 -0.06585994 -0.07458221 
0.62493896 0.7689813 -0.1346078 
0.2773914 0.95891887 -0.059403416 
0.13904646 0.9893102 0.043947905 
0.059652045 0.99466217 0.084195256 
0.034389243 0.9981424 0.05029002 
-0.039105345 0.99841267 -0.040533423 
-0.030292267 0.98468184 -0.17170963 
0.07013531 0.9905645 -0.11774166 
0.09066943 0.99472874 0.047893208 
0.041018054 0.9887538 0.1438178 
0.0017579974 0.99171746 0.128427 
0.008211786 0.99886495 0.046919838 
0.007565515 0.9979574 -0.063433066 
0.018325625 0.98653543 -0.16251804 
0.038364913 0.99003345 -0.13550627 
0.033114903 0.9980256 -0.05337157 
-0.020408826 0.9996131 -0.01889743 
-0.04317896 0.9951694 -0.088167034 
-0.011941593 0.98506147 -0.17178923 
0.0039087967 0.9854709 -0.16979955 
-0.035101913 0.9970561 -0.06816851 
-0.10537549 0.99440366 -0.007583837 
-0.13428116 0.98940223 -0.055243216 
-0.112987995 0.9895038 -0.09008921 
-0.051893044 0.9951488 -0.08358321 
0.008496652 0.99460906 -0.10334702 
-0.035560053 0.9982525 -0.047195755 
-0.16672881 0.98386896 0.06483349 
-0.259 0.9613525 0.09338336 
0.3252002 -0.6338996 0.70172375 
0.6808488 -0.046594445 0.73094046 
0.7494583 0.61364335 0.2485038 
0.48416698 0.87473994 0.020308128 
0.29143938 0.95432484 -0.065781154 
0.16887867 0.9850343 -0.034461755 
0.07462077 0.9970517 -0.017876351 
0.035619184 0.998389 -0.04416562 
-0.002073294 0.99142534 -0.13065802 
0.047732092 0.97998154 -0.19328222 
0.11359249 0.98886865 -0.09610172 
0.08974258 0.9949676 0.044562157 
0.05829267 0.99253654 0.1071131 
0.04303848 0.9938909 0.101630405 
0.04567013 0.9982029 0.03879916 
0.036962062 0.99785095 -0.05410468 
0.029963296 0.98898655 -0.14494087 
0.02370892 0.9883721 -0.1501956 
-9.5643954e-05 0.99468356 -0.10297902 
-0.060019456 0.9948133 -0.08212333 
-0.08626346 0.9884429 -0.124657154 
-0.06516347 0.9801587 -0.18719693 
-0.05125956 0.97327095 -0.22386658 
-0.08301951 0.9804638 -0.17832172 
-0.13308711 0.9863482 -0.09698051 
-0.09290779 0.99182105 -0.08751763 
-0.0070014303 0.9913899 -0.13075651 
0.057016492 0.9853044 -0.16101055 
0.102986254 0.9792033 -0.1747994 
0.08745616 0.98618793 -0.14065842 
0.04595919 0.9915893 -0.120989196 
0.010282033 0.9884491 -0.15120451 
0.15208177 0.72027534 0.67681205 
0.26294425 0.843854 0.4677294 
0.3451254 0.9180343 0.19519629 
0.36831948 0.92863053 0.04456678 
0.2966308 0.9543967 -0.03372341 
0.17744003 0.9828467 -0.05027464 
0.09142593 0.9932398 -0.07152542 
0.046784163 0.9952813 -0.085009314 
0.03085051 0.9912089 -0.12865901 
0.06008892 0.98640704 -0.15293993 
0.07596592 0.99192655 -0.10154331 
0.036815163 0.9988176 -0.031751443 
0.04185542 0.99909043 -0.0081550265 
0.04468164 0.9989545 0.009675257 
0.020194888 0.99965775 -0.016632354 
0.0006333521 0.9963802 -0.085006066 
-0.005486424 0.9899959 -0.14098975 
-0.013982231 0.987715 -0.15563977 
-0.0403956 0.987514 -0.15226388 
-0.09098763 0.9826193 -0.16180427 
-0.11063114 0.97574145 -0.18891625 
-0.114495724 0.9691569 -0.21823296 
-0.13210937 0.9547549 -0.26643988 
-0.16927804 0.9466584 -0.27419493 
-0.18926713 0.9547702 -0.22932902 
-0.10831197 0.9722702 -0.20726584 
0.0133260405 0.97927946 -0.20207478 
0.113923356 0.9736902 -0.19735506 
0.18800226 0.9618965 -0.19852056 
0.18969187 0.9646771 -0.18279813 
0.16300265 0.9625323 -0.21670654 
0.13282736 0.9499845 -0.28264192 
0.13307281 0.95699495 0.25778383 
0.13085133 0.97350484 0.187527 
0.20265727 0.97228754 0.11656295 
0.28358516 0.9565888 0.06721222 
0.23433326 0.97196114 0.019479403 
0.1282428 0.9910745 -0.036402866 
0.064160004 0.9939002 -0.08969981 
0.019947955 0.99434495 -0.104309045 
-0.0020601908 0.99237084 -0.12327196 
-0.011442779 0.9890051 -0.147438 
-0.02170689 0.9898021 -0.14078566 
-0.032970887 0.993025 -0.11320007 
0.026803305 0.9937902 -0.1079939 
0.0587164 0.99578226 -0.07050017 
-0.0017818682 0.9981462 -0.06083644 
-0.05709105 0.99256176 -0.10752621 
-0.05798306 0.99050003 -0.12469041 
-0.042438205 0.9915172 -0.12285221 
-0.0612707 0.987581 -0.14467144 
-0.1113993 0.9796655 -0.16687046 
-0.12517354 0.97694963 -0.1729191 
-0.16930325 0.96883476 -0.18081953 
-0.2636179 0.9382864 -0.22388479 
-0.32461676 0.9167168 -0.23292568 
-0.28631452 0.9297135 -0.23163964 
-0.16285676 0.95564634 -0.24539346 
-0.021555047 0.97541076 -0.21933831 
0.12195304 0.9679251 -0.2196557 
0.2084189 0.9477796 -0.24140307 
0.21600458 0.9500876 -0.22511242 
0.1845156 0.94240755 -0.27896595 
0.124496706 0.92624974 -0.3557557 
0.17188765 0.98507315 0.009249135 
0.13990511 0.9901107 -0.010367253 
0.19015583 0.98168427 0.0116976835 
0.23234443 0.9723511 0.02343982 
0.1510117 0.9885033 0.007540047 
0.03408301 0.99859935 -0.040468447 
-0.022970486 0.9950707 -0.09647111 
-0.031205906 0.99385375 -0.106211536 
-0.031473033 0.99330306 -0.11116885 
-0.047966767 0.98902124 -0.13977218 
-0.07112516 0.98608506 -0.15025845 
-0.05117807 0.98796064 -0.1459953 
0.05434014 0.9881445 -0.14358829 
0.108794756 0.98909956 -0.09922612 
0.020206813 0.9966198 -0.0796282 
-0.0551222 0.9921008 -0.112683386 
-0.050771177 0.99265283 -0.10982998 
-0.024245212 0.9952629 -0.09414881 
-0.04991154 0.9916109 -0.11923423 
-0.10422465 0.98520684 -0.13603203 
-0.12297676 0.98580575 -0.114297315 
-0.20052175 0.97633725 -0.08097234 
-0.3352122 0.9382309 -0.08576556 
-0.3928128 0.9156206 -0.085657366 
-0.3200616 0.9367574 -0.14158498 
-0.2033391 0.96222425 -0.1810464 
-0.06834694 0.984502 -0.16150735 
0.061433025 0.9685247 -0.24121803 
0.120765604 0.94871235 -0.29216558 
0.17697987 0.94666463 -0.269266 
0.17681912 0.93712616 -0.30088156 
0.108750425 0.93062204 -0.34945124 
0.25471497 0.961229 -0.10563707 
0.21073288 0.9712722 -0.11055295 
0.22611222 0.97207075 -0.06286352 
0.22039936 0.9744013 -0.044343285 
0.12191926 0.99090815 -0.05689251 
0.011279292 0.99675524 -0.07969845 
-0.052611653 0.99416256 -0.09419605 
-0.03875644 0.9957543 -0.08349554 
-0.011719378 0.99584883 -0.09026529 
-0.013078254 0.9905681 -0.13639554 
-0.025853295 0.98676676 -0.1600716 
0.017007954 0.98669213 -0.16170819 
0.12994908 0.9807022 -0.14607018 
0.17919928 0.97882164 -0.09897472 
0.06950532 0.99429953 -0.080854274 
-0.018341681 0.99512005 -0.09695281 
-0.031077491 0.9957426 -0.08678043 
-0.02759561 0.996092 -0.08390085 
-0.071721 0.9900892 -0.1207455 
-0.10378175 0.9841784 -0.14360425 
-0.10973859 0.9874623 -0.11347126 
-0.17113465 0.98463356 -0.034780275 
-0.2605112 0.9654459 -0.0069393795 
-0.29271492 0.9555387 -0.035550985 
-0.2705213 0.9570062 -0.104677506 
-0.20998232 0.97292656 -0.096548244 
-0.09652578 0.9925046 -0.07494924 
-0.026538905 0.9773298 -0.21005292 
0.0071587972 0.9657684 -0.2593074 
0.111956604 0.95942414 -0.25878775 
0.1370621 0.9519739 -0.27378753 
0.10876829 0.9533561 -0.28157008 
0.33477476 0.93928045 -0.0753531 
0.29475033 0.95197904 -0.08281469 
0.26444742 0.9631984 -0.04813099 
0.21560328 0.9753874 -0.046202753 
0.11958221 0.9900629 -0.073997065 
0.030463515 0.9956986 -0.08750158 
-0.022537805 0.9968156 -0.07648952 
0.019162899 0.99715626 -0.07288493 
0.08375608 0.9898878 -0.11448655 
0.113732 0.97829777 -0.17320117 
0.12749131 0.9718577 -0.1980871 
0.17822868 0.96568227 -0.18892406 
0.25784525 0.9537048 -0.15479983 
0.30074632 0.9492136 -0.09244051 
0.18552768 0.980625 -0.062881894 
0.059726913 0.9950696 -0.07917848 
-0.001236119 0.99653524 -0.08316342 
-0.034337252 0.9958238 -0.08459248 
-0.092213504 0.99029213 -0.10401049 
-0.102532335 0.9881118 -0.11455297 
-0.08398906 0.99078137 -0.106292635 
-0.11474519 0.9917564 -0.057033144 
-0.16403155 0.9856658 -0.039455302 
-0.20304626 0.9758939 -0.08002119 
-0.24847184 0.9625377 -0.108549744 
-0.21987967 0.9742251 -0.050383992 
-0.1291188 0.99106777 -0.033362057 
-0.080553524 0.9872309 -0.13742761 
-0.02924521 0.98761505 -0.15414743 
0.06989419 0.9832474 -0.16834334 
0.101341896 0.9810225 -0.165302 
0.12421228 0.98320925 -0.13368234 
0.56120634 0.823585 -0.08219113 
0.4813723 0.8731787 -0.07641706 
0.35259423 0.9348131 -0.042448245 
0.2524952 0.9667681 -0.040071376 
0.16348453 0.9860647 -0.030813118 
0.08714674 0.99615514 -0.008970399 
0.06635199 0.9977903 -0.00346265 
0.14850762 0.98807687 -0.040614776 
0.2572261 0.9601721 -0.10910642 
0.31749225 0.9377487 -0.14080542 
0.3510717 0.9273692 -0.12936415 
0.38892546 0.91490734 -0.108081244 
0.39495307 0.9131002 -0.10129298 
0.42072126 0.90392214 -0.0769326 
0.3115069 0.949214 -0.044229854 
0.14709033 0.98632354 -0.07436667 
0.022647746 0.99332297 -0.11312257 
-0.051334646 0.9912077 -0.12195072 
-0.10963107 0.98754054 -0.11289247 
-0.112206556 0.98878056 -0.0986042 
-0.09053641 0.9918902 -0.08920296 
-0.12459165 0.9902149 -0.062860996 
-0.1590234 0.9857912 -0.05410498 
-0.17910391 0.98002833 -0.08640804 
-0.23063609 0.9680319 -0.09859617 
-0.20581003 0.97762275 -0.04354377 
-0.13177386 0.9910507 -0.021311617 
-0.06760169 0.9957671 -0.0622732 
-0.014408609 0.9982234 -0.057813156 
0.039724022 0.9958513 -0.08186819 
0.081614815 0.9934065 -0.08051559 
0.13155092 0.9906107 -0.037214912 
0.9132865 0.23821436 -0.33039615 
0.81336814 0.55927384 -0.16014053 
0.45944992 0.88813806 0.0107988855 
0.25468388 0.9669925 -0.007845504 
0.17500485 0.9845134 0.010328698 
0.13571319 0.9888151 0.06185986 
0.14751434 0.9867288 0.06786667 
0.24024619 0.9705409 0.018228851 
0.38393188 0.92321587 -0.01639856 
0.50272995 0.863884 0.031096455 
0.62761945 0.76961243 0.11743323 
0.6693203 0.7246134 0.164152 
0.59170854 0.80261487 0.07543575 
0.5520054 0.83362186 -0.019098343 
0.41724116 0.9084274 -0.025878303 
0.22456864 0.9709511 -0.08260188 
0.045925412 0.9854142 -0.1638591 
-0.06968539 0.97865057 -0.19335748 
-0.12960038 0.97680676 -0.17044708 
-0.14483397 0.97972924 -0.13839684 
-0.13847218 0.98547643 -0.09829345 
-0.16688302 0.984037 -0.061816864 
-0.1809943 0.9812151 -0.06676777 
-0.18165255 0.97593576 -0.12063098 
-0.22117491 0.96267617 -0.15600099 
-0.18490878 0.97677284 -0.10827595 
-0.098570295 0.9929316 -0.06611292 
-0.02681082 0.9981801 -0.05401512 
0.009909931 0.9989893 -0.043842506 
0.0399081 0.99591535 -0.08099422 
0.10416632 0.99255353 -0.06314189 
0.18127775 0.98295224 0.03071317 
0.7081115 -0.70322084 -0.06370627 
0.9263337 -0.31587452 0.20525427 
0.5112076 0.6952046 0.505329 
0.19713515 0.9592973 0.20220381 
0.11581787 0.9893634 0.088013776 
0.10989065 0.9897654 0.09104202 
0.15067191 0.9816063 0.1172483 
0.25702482 0.9577426 0.12910257 
0.43966937 0.87476027 0.20367928 
0.64115036 0.6683097 0.3772114 
0.8382319 0.22084898 0.498591 
0.8594177 0.099231295 0.5015519 
0.81174 0.4815512 0.33043435 
0.6780108 0.72634214 0.11282077 
0.4448545 0.8952769 0.024162073 
0.2115867 0.97417104 -0.07887935 
0.034659516 0.98364127 -0.17677248 
-0.063883595 0.9762333 -0.20709294 
-0.11438007 0.9758951 -0.18586595 
-0.14350978 0.9774203 -0.15509559 
-0.15839456 0.98365706 -0.08561558 
-0.18364383 0.982919 -0.012053 
-0.18714021 0.98228705 -0.009521322 
-0.1884317 0.97788215 -0.09077511 
-0.20979159 0.9602943 -0.18390892 
-0.16170561 0.96845675 -0.1895862 
-0.06918723 0.98598504 -0.15181147 
0.015187685 0.9936209 -0.11174503 
0.09709564 0.9881239 -0.119095154 
0.23447888 0.9517993 -0.19773158 
0.398201 0.916673 -0.033860695 
0.5461369 0.8139445 0.19806275 
0.27681708 -0.96019137 -0.037482735 
0.2652454 -0.94880944 0.1714805 
-0.08853606 -0.7546693 0.65010434 
0.08135543 0.8567158 0.5093323 
0.05136256 0.9798677 0.19292831 
0.07402604 0.9883395 0.13306074 
0.1558417 0.97310436 0.16965072 
0.28376505 0.9305963 0.23123181 
0.46342686 0.78864837 0.40406612 
0.6371587 0.3443434 0.6895335 
0.65214825 -0.42374828 0.6286018 
0.66343755 -0.506209 0.5510019 
0.8040151 0.11143708 0.5840731 
0.66943514 0.67460537 0.3110697 
0.38162106 0.920096 0.08825395 
0.15520298 0.9868576 -0.04499024 
0.047863845 0.99375474 -0.10079942 
0.019639036 0.9932378 -0.114424445 
-0.008670116 0.99335635 -0.11475194 
-0.040228885 0.9960108 -0.07965074 
-0.06624182 0.99760145 0.020084696 
-0.10061929 0.9868196 0.12673947 
-0.094765514 0.9870269 0.12960494 
-0.101793356 0.99448615 0.025210313 
-0.13803661 0.9847683 -0.105723806 
-0.12751843 0.9775743 -0.16759399 
-0.039431717 0.9847737 -0.16931057 
0.115496345 0.97672784 -0.18073024 
0.3888688 0.8585408 -0.33419877 
0.66660553 -0.42366934 -0.61330366 
0.6952563 -0.7122542 -0.096502095 
0.69836795 -0.7156348 -0.0122122 
0.15338886 -0.98422337 -0.088182926 
0.14168695 -0.98990524 0.0035429029 
0.097530894 -0.9666095 0.23696789 
0.15459032 0.681398 0.7154011 
0.06799227 0.9441901 0.32230756 
0.07529848 0.97699016 0.19955076 
0.16159026 0.968341 0.1902744 
0.27875838 0.932363 0.2302024 
0.4161204 0.8130993 0.40707925 
0.56377953 0.39946476 0.72289735 
0.6102617 -0.3484699 0.7114418 
0.65710646 -0.40405944 0.6363546 
0.7334494 0.30557925 0.6071848 
0.5458963 0.7903275 0.27817205 
0.31193778 0.94887817 0.048218437 
0.15801215 0.9860826 -0.05170342 
0.12265619 0.99121726 -0.049436357 
0.144082 0.9889599 -0.03462317 
0.13680297 0.99013835 -0.030183313 
0.12699462 0.9910709 0.04062976 
0.11915892 0.97760767 0.17344864 
0.061831083 0.952661 0.29768097 
0.060740225 0.95755875 0.28176594 
0.05339833 0.98628426 0.15617967 
-0.00014359051 0.9992722 0.03814587 
-0.048989978 0.99849486 -0.02465935 
-0.0017327312 0.9994641 -0.03269058 
0.19416074 0.98082936 -0.016593799 
0.5775655 0.815204 -0.04313373 
0.28228998 -0.925475 -0.25260317 
0.21353178 -0.9765023 -0.02911273 
0.23889914 -0.9709801 -0.0111744385 
0.1359476 -0.985992 -0.096633226 
0.13208337 -0.9890598 -0.06568595 
0.23383676 -0.97220176 0.012011193 
0.27529335 0.6394052 0.7178959 
0.094824955 0.93391323 0.34469453 
0.054678258 0.9747044 0.21670628 
0.13382278 0.9743306 0.18102847 
0.2585652 0.94941336 0.17820895 
0.37020662 0.87770003 0.30428556 
0.48372528 0.66718304 0.56645983 
0.6280165 0.27533522 0.72786397 
0.71598417 0.2562421 0.6493895 
0.6119915 0.6739774 0.41378862 
0.4433132 0.8819522 0.1601054 
0.29267505 0.9556874 0.03167027 
0.19180737 0.9811465 -0.023698037 
0.18190093 0.98328394 -0.008046049 
0.22676177 0.9736153 0.025542278 
0.24963199 0.96662587 0.0576063 
0.28194076 0.94210136 0.18153359 
0.33589578 0.8641308 0.37476936 
0.27495572 0.80992967 0.5180862 
0.24434458 0.8558191 0.45592707 
0.21429779 0.9373073 0.27482995 
0.12917766 0.98123676 0.14313474 
0.01978724 0.9952721 0.09508903 
-0.010402532 0.99531454 0.096129 
0.096270725 0.98007685 0.17372799 
0.34606323 0.8534574 0.38968042 
0.10089535 -0.9946581 -0.021805583 
0.044748195 -0.99897164 0.0073052202 
0.085792184 -0.9962902 -0.006747307 
0.18157065 -0.98219556 -0.048208967 
0.16221637 -0.98532397 -0.053128228 
0.29056177 -0.95171595 -0.09904848 
0.5491002 0.74777496 0.37325817 
0.19257247 0.9605377 0.20070729 
0.041318294 0.9900011 0.1348729 
0.053271767 0.99343526 0.10123516 
0.15946212 0.98399264 0.079563536 
0.26658684 0.95117825 0.15553641 
0.34537944 0.87666684 0.33491564 
0.42250636 0.78314626 0.45625672 
0.4813241 0.7898979 0.37998492 
0.40515918 0.8900185 0.20907721 
0.30984372 0.9482681 0.06917111 
0.21770167 0.9758002 0.020490518 
0.15683262 0.98761594 -0.004277694 
0.17872733 0.98382175 0.012308084 
0.26598334 0.961575 0.06801883 
0.3518587 0.92077816 0.16841374 
0.45469326 0.7938565 0.40378955 
0.5556511 0.44128978 0.7046384 
0.4447811 0.34326822 0.8272465 
0.3486098 0.6248719 0.6985745 
0.29054055 0.8516231 0.43626186 
0.19668728 0.94505185 0.2611344 
0.067225434 0.97457397 0.2137434 
-0.025498739 0.97510827 0.22025833 
-0.027140558 0.93441457 0.35515204 
0.034350563 0.6480171 0.76085085 
0.04964342 -0.983102 0.17619848 
0.0586397 -0.9974757 0.04004535 
0.11141717 -0.99349654 -0.023469012 
0.38174394 -0.922353 -0.05946951 
0.3683181 -0.9201773 -0.13272434 
0.45467806 -0.83344847 -0.31405675 
0.6822851 0.7254304 -0.09076287 
0.23877452 0.9710751 -0.00014904604 
0.01611167 0.99982995 0.008981903 
-0.032847486 0.9994167 -0.009348145 
0.0313723 0.9993391 -0.018366152 
0.11183815 0.99189603 0.060287252 
0.15777208 0.9667874 0.20107265 
0.1777126 0.94678426 0.26836154 
0.21149932 0.95971704 0.1849627 
0.18118364 0.98135954 0.06407766 
0.13478315 0.99078536 -0.013337856 
0.10192072 0.9943553 -0.029489888 
0.091785714 0.9949665 -0.040212914 
0.15067124 0.9884231 -0.017835533 
0.30878243 0.94772536 0.08043804 
0.4984699 0.81933606 0.28322464 
0.6372399 0.4423634 0.63106257 
0.5412066 -0.3240742 0.7759326 
0.4051041 -0.36271277 0.83924377 
0.36964726 0.28222063 0.88527536 
0.31089365 0.7605478 0.5700106 
0.20127338 0.9217267 0.331525 
0.09670541 0.96164 0.25670356 
0.008864307 0.9678358 0.25142673 
-0.03229777 0.9236092 0.3819724 
-0.057379216 0.60809535 0.7917877 
-0.103463374 -0.9474304 0.3027723 
0.071753204 -0.9943718 0.07795141 
0.14403704 -0.9892128 -0.026674407 
0.8579299 -0.50796795 -0.07697426 
0.8557167 -0.39721414 -0.331617 
0.7205546 -0.07968613 -0.68880427 
0.3952898 0.86128414 -0.31927347 
0.09386952 0.9844109 -0.14874072 
-0.06867966 0.98861533 -0.13387655 
-0.13449147 0.97909373 -0.15260266 
-0.11801542 0.9821928 -0.14618392 
-0.05681268 0.9980381 -0.026313106 
-0.01579165 0.9932781 0.11467038 
-0.018510265 0.9896389 0.1423811 
-0.02115019 0.99900246 0.039329045 
-0.031019242 0.997091 -0.06962322 
-0.02530018 0.99323976 -0.11329052 
0.0005797889 0.992399 -0.12306077 
0.042198576 0.99317735 -0.10871103 
0.15512685 0.9874694 -0.028982889 
0.3775958 0.9200317 0.104704954 
0.6210318 0.7205533 0.30841953 
0.734715 0.24820681 0.63133776 
0.55535084 -0.48518255 0.6754135 
0.4713028 -0.4702544 0.7461465 
0.4796386 0.2276215 0.84742874 
0.39376605 0.73590684 0.55080795 
0.24818808 0.9135148 0.322325 
0.13389815 0.96572137 0.22238152 
0.038174294 0.98495775 0.168526 
-0.0028360973 0.9721743 0.23424171 
-0.023322765 0.8215319 0.5696855 
-0.19928113 -0.7953046 0.57251877 
0.21023011 -0.9593872 0.18809481 
0.26559287 -0.9640416 0.00918675 
0.5336086 0.814359 0.2282134 
0.39692527 0.91511035 0.07087669 
0.32502675 0.94017285 -0.10214031 
0.13981596 0.98915416 -0.04500611 
-0.009735674 0.99802685 -0.062029626 
-0.11566114 0.98313886 -0.14163484 
-0.17868893 0.96222794 -0.20539679 
-0.20336731 0.9526635 -0.22599602 
-0.17813627 0.9770146 -0.117089964 
-0.15136729 0.98840076 0.012330393 
-0.14493169 0.9890519 0.0277725 
-0.15089756 0.9866807 -0.060755413 
-0.15396948 0.9777467 -0.14249489 
-0.12166672 0.97757536 -0.17188261 
-0.06397407 0.97823787 -0.19737807 
0.028367406 0.98262507 -0.18342133 
0.18934561 0.9788799 -0.07708597 
0.40202498 0.9148058 0.038812544 
0.59337956 0.78822786 0.16308752 
0.70834804 0.5512254 0.44090107 
0.73457944 0.100015454 0.67111105 
0.7111915 0.2210301 0.6673474 
0.57660204 0.67012197 0.4674042 
0.42445278 0.8697507 0.25174156 
0.26055253 0.952314 0.15877828 
0.13771127 0.9814169 0.133628 
0.055132907 0.99280554 0.106290385 
0.05671552 0.99384993 0.09510886 
0.14296189 0.9699899 0.19667636 
0.4597537 0.76516783 0.45071584 
0.88460207 -0.4093723 0.22336853 
0.6524787 -0.7575351 -0.020302966 
0.13623397 0.98745173 0.07987162 
0.059512835 0.99777675 0.029995842 
0.06263843 0.99800265 0.008193638 
0.02733625 0.99905306 0.033848546 
-0.046329502 0.99889207 -0.008269168 
-0.12716338 0.9888292 -0.077758215 
-0.1919112 0.97025025 -0.1475955 
-0.22420812 0.95232224 -0.20691338 
-0.18958591 0.96990687 -0.15276708 
-0.16458948 0.9845042 -0.06051255 
-0.15661198 0.9866624 -0.044385187 
-0.15366831 0.984559 -0.08384406 
-0.15376432 0.980972 -0.11853521 
-0.1166096 0.98200697 -0.14854184 
-0.06607816 0.9782849 -0.19644931 
0.019547392 0.9810093 -0.19297342 
0.1911883 0.97755235 -0.08853584 
0.3965422 0.91801566 -0.0012911538 
0.52426684 0.85075915 0.036786437 
0.56589687 0.8102748 0.15236695 
0.61540145 0.7409701 0.26878327 
0.55789804 0.80222356 0.21257325 
0.45387092 0.88856536 0.0667292 
0.3731911 0.9277534 -0.0014378033 
0.24902157 0.9676886 0.03958735 
0.11634947 0.98791397 0.10241496 
0.0596385 0.992468 0.10700717 
0.10238499 0.9935826 0.04807426 
0.18818483 0.98150045 0.035263658 
0.39648598 0.9168329 0.04707823 
0.8148839 0.5636273 -0.13523516 
0.9292898 0.20486748 -0.30732688 
0.0795069 0.99676424 -0.011821759 
0.024315324 0.99910295 -0.03467143 
0.018963967 0.99924153 -0.03400978 
-0.014404014 0.99973696 -0.017848833 
-0.07492695 0.9962564 -0.043118607 
-0.13391677 0.98989725 -0.04658202 
-0.18553129 0.9782937 -0.092300996 
-0.21052215 0.96509254 -0.15581058 
-0.17426585 0.9761818 -0.12923035 
-0.14554416 0.987477 -0.06087876 
-0.12407064 0.9909109 -0.051980875 
-0.09584261 0.993003 -0.06898766 
-0.08984459 0.9926419 -0.08117973 
-0.08087224 0.98963434 -0.118674226 
-0.06558255 0.98426753 -0.16406195 
-0.021012945 0.9876649 -0.15516663 
0.1244551 0.9900334 -0.065916106 
0.3320955 0.9432267 0.006010881 
0.43872303 0.8985227 -0.013392716 
0.38652202 0.92171764 -0.032207772 
0.344575 0.93864924 -0.014343122 
0.31163087 0.9486386 -0.054507878 
0.28206438 0.95318073 -0.10902349 
0.257247 0.96347785 -0.07439418 
0.16098732 0.98679733 0.017726762 
0.051023535 0.9960918 0.07209627 
0.06225068 0.9962355 0.06032954 
0.1303121 0.99122477 0.022188287 
0.20033522 0.9788783 0.040779814 
0.28002396 0.9591845 0.039390218 
0.4025229 0.9154065 0.0024945294 
0.46956167 0.8827826 0.014381609 
0.100056745 0.98415494 -0.1463824 
0.0671576 0.9844609 -0.16225493 
0.056489833 0.98631597 -0.15488634 
-0.01644618 0.9906128 -0.13570487 
-0.07612669 0.98880136 -0.12836117 
-0.1155269 0.9920213 -0.05047143 
-0.18783757 0.9793474 -0.07480411 
-0.2229151 0.963281 -0.14966226 
-0.19137987 0.9738383 -0.12252595 
-0.15933982 0.9862281 -0.04432788 
-0.1278667 0.991142 -0.035884533 
-0.08381206 0.99327356 -0.079895936 
-0.06888279 0.99154085 -0.110009424 
-0.07097833 0.9889118 -0.13044403 
-0.048759453 0.9902307 -0.130636 
-0.009694373 0.99435663 -0.1056456 
0.08560656 0.9946712 -0.05745177 
0.23725854 0.97117907 -0.022794819 
0.31867206 0.9462973 -0.05449415 
0.23077454 0.966438 -0.11287498 
0.14869969 0.9799645 -0.13250732 
0.119266465 0.97555935 -0.18455248 
0.100391306 0.97922564 -0.17617805 
0.104074165 0.99141985 -0.07909083 
0.045944467 0.998909 -0.008362428 
0.0068717836 0.99997014 0.0035398926 
0.08208241 0.9961772 -0.029890183 
0.15553385 0.9871016 -0.0379424 
0.22761175 0.9735752 0.018556993 
0.25316146 0.9671558 0.022781923 
0.2696625 0.9629546 -0.0008173712 
0.29448104 0.95538175 0.022953348 
0.12930007 0.93195283 -0.33874112 
0.13848196 0.94330454 -0.30166095 
0.11746786 0.9619955 -0.24650797 
0.018484365 0.974889 -0.221923 
-0.036041442 0.98013765 -0.19501595 
-0.08495083 0.9934068 -0.07698313 
-0.17327641 0.97879386 -0.109261155 
-0.2172839 0.9653389 -0.1445983 
-0.25137433 0.96514106 -0.07289632 
-0.2573411 0.96632075 -0.00013493458 
-0.20095344 0.9796004 -0.0008338453 
-0.11765032 0.9893421 -0.08579471 
-0.073883764 0.9863718 -0.14700995 
-0.063142225 0.9864025 -0.15173395 
-0.0455356 0.99252176 -0.11325752 
-0.025258834 0.99687636 -0.07482976 
0.022733355 0.998304 -0.053595345 
0.110338785 0.9931296 -0.038972758 
0.17927733 0.9823518 -0.053336687 
0.1309791 0.98638725 -0.09942135 
0.048898097 0.98927045 -0.13766968 
0.012611156 0.9830422 -0.18294552 
0.010246555 0.98819613 -0.15285097 
0.03868212 0.9964285 -0.075059734 
0.020742022 0.9983264 -0.05398359 
0.030290175 0.9976153 -0.062018525 
0.10566882 0.99156976 -0.07499123 
0.20241202 0.97714645 -0.06491771 
0.28969255 0.95629156 -0.03980831 
0.27451167 0.96025544 -0.050526254 
0.2592509 0.96165466 -0.08949533 
0.27656156 0.9585455 -0.06858896 
0.16353706 0.8984007 -0.40759274 
0.19806232 0.9229846 -0.32995564 
0.17624292 0.95210916 -0.24985343 
0.10541382 0.9612002 -0.25491598 
0.041676227 0.9716089 -0.23289354 
-0.05154686 0.98638016 -0.15619606 
-0.14571738 0.9730704 -0.17860742 
-0.2388224 0.9601539 -0.14514977 
-0.34652647 0.9344448 -0.08205166 
-0.359035 0.93081367 -0.068410516 
-0.25717014 0.96502453 -0.050903518 
-0.14824751 0.9846602 -0.09201622 
-0.093330815 0.9858449 -0.13928105 
-0.06545463 0.98845965 -0.1366136 
-0.05816342 0.9946882 -0.08492595 
-0.050554138 0.9965104 -0.066417865 
-0.021759393 0.9972183 -0.071289845 
0.033808284 0.99838656 -0.045621872 
0.095673434 0.99434716 -0.04604825 
0.08168051 0.9925513 -0.09038943 
0.008436404 0.9899039 -0.14148887 
-0.016144361 0.98329586 -0.18129764 
-0.015444242 0.9849227 -0.17230397 
0.0061687594 0.9904275 -0.1378965 
0.015984438 0.99049544 -0.13661362 
0.044986982 0.98896176 -0.14117688 
0.0894317 0.98987937 -0.110185474 
0.20762007 0.9746372 -0.08352496 
0.2878018 0.9533977 -0.090570614 
0.24524923 0.96340364 -0.10819588 
0.23038605 0.96206796 -0.1461082 
0.24747008 0.9598034 -0.13242362 
0.18010761 0.912753 -0.36666518 
0.20598577 0.9362616 -0.28457725 
0.20792818 0.9548669 -0.21212082 
0.18745764 0.95498043 -0.22993961 
0.10799783 0.9687982 -0.22308421 
-0.013096648 0.975306 -0.22046944 
-0.1309693 0.9609687 -0.24369301 
-0.25873283 0.94067657 -0.21951085 
-0.3375785 0.9139756 -0.22514302 
-0.31685704 0.91853803 -0.23640978 
-0.22964633 0.95498174 -0.18780969 
-0.15956594 0.97146124 -0.17550431 
-0.12647498 0.97706956 -0.17128725 
-0.09272452 0.98580873 -0.1399409 
-0.07299651 0.994229 -0.07861433 
-0.05705176 0.99560577 -0.07425834 
-0.038335375 0.9950906 -0.091242485 
-0.007620569 0.9985315 -0.05363687 
0.053216204 0.9977881 -0.039839406 
0.07748838 0.99319077 -0.08699239 
0.034815438 0.98765004 -0.15275916 
0.016932013 0.9779394 -0.20820159 
-0.024757458 0.97604626 -0.21615009 
-0.034421526 0.9849038 -0.16964582 
-0.0028650567 0.9878384 -0.15545782 
0.034920517 0.9850261 -0.16883174 
0.055013392 0.98919386 -0.13590114 
0.1463428 0.9829685 -0.11116084 
0.17353655 0.98002744 -0.09711476 
0.11713281 0.98859805 -0.09462472 
0.13694806 0.9824734 -0.1264568 
0.17512411 0.97816503 -0.111914136 
0.16275948 0.94927335 -0.26905307 
0.17707139 0.9620559 -0.20759185 
0.19054306 0.9666648 -0.17103367 
0.18477425 0.9648604 -0.18682322 
0.111875884 0.9745274 -0.19437137 
0.011415197 0.9763034 -0.21610539 
-0.112501025 0.9641074 -0.24050088 
-0.20532796 0.9430027 -0.26189014 
-0.20060858 0.9300022 -0.30798066 
-0.16922385 0.93723 -0.30489898 
-0.15707837 0.9566302 -0.24532637 
-0.14240405 0.9661853 -0.21495827 
-0.11617341 0.9759995 -0.184198 
-0.07841506 0.9849062 -0.15430784 
-0.043639567 0.9919538 -0.1188412 
0.0050898422 0.99436027 -0.105932936 
0.028758047 0.9951607 -0.09395925 
0.026397737 0.9987341 -0.04281704 