# OOMMF OVF 2.0
# Segment count: 1
# Begin: Segment
# Begin: Header
# Title: m
# meshtype: rectangular
# meshunit: m
# xmin: 0
# ymin: 0
# zmin: 0
# xmax: 1.6e-07
# ymax: 1.6e-07
# zmax: 5e-09
# valuedim: 3
# valuelabels: m_x m_y m_z
# valueunits: 1 1 1
# Desc: Total simulation time:  2.1394482530912443e-11  s
# xbase: 2.5e-09
# ybase: 2.5e-09
# zbase: 2.5e-09
# xnodes: 32
# ynodes: 32
# znodes: 1
# xstepsize: 5e-09
# ystepsize: 5e-09
# zstepsize: 5e-09
# End: Header
# Begin: Data Text
0.32528928 -0.9331377 -0.15310468 
0.4757841 -0.8782606 -0.047830306 
0.75506127 -0.6548954 0.031538993 
0.9985381 -0.038709972 0.037725497 
0.77099663 0.58412606 -0.25369465 
0.767965 0.6265116 -0.13309073 
0.6438628 0.743213 0.18186602 
0.4083662 0.89182764 0.19462948 
0.125378 0.9879911 0.090299815 
-0.082014054 0.99662286 -0.0040788897 
-0.08915015 0.99576235 -0.022576915 
0.06654152 0.9976662 0.015311551 
0.11892663 0.9893223 0.0842495 
0.00059548055 0.991028 0.13365348 
-0.21102071 0.97308797 0.09257511 
-0.28242418 0.959281 0.0040740175 
-0.20719045 0.9782207 -0.012505778 
-0.16870522 0.9856597 -0.0036928237 
-0.17773946 0.9840077 -0.011730792 
-0.22362521 0.9732599 -0.052505862 
-0.13890152 0.9790387 -0.14896189 
-0.05371123 0.9704504 -0.23524687 
-0.03033826 0.970905 -0.23753558 
0.013258836 0.99328154 -0.11496139 
0.0792767 0.99447477 0.06881314 
0.13990267 0.98214227 0.12579292 
0.20257351 0.9695949 0.13729496 
0.21150634 0.9238459 0.3190202 
0.058355555 0.5264106 0.8482255 
-0.55399036 -0.46905792 0.68780774 
-0.6083043 -0.7928146 0.037561096 
-0.37440637 -0.8767195 -0.301965 
0.2739883 -0.9606392 -0.045856196 
0.387518 -0.9218622 -7.994068e-05 
0.7211937 -0.6782972 0.14068654 
0.9477575 0.24495992 0.20432948 
0.6741994 0.73712903 -0.045782663 
0.590896 0.805036 0.05252631 
0.40204313 0.89408576 0.19741322 
0.22727855 0.96300286 0.14481 
0.07679308 0.994292 0.074069545 
-0.038415063 0.99920136 0.011001377 
-0.027672607 0.99923193 -0.027745472 
0.07676334 0.99700516 -0.009394746 
0.096333005 0.9930195 0.06806148 
0.0046195323 0.9928559 0.11923101 
-0.13737226 0.98713696 0.08178916 
-0.17537826 0.98446476 -0.00846964 
-0.12548764 0.99187946 -0.020691697 
-0.13785104 0.9904202 -0.008061718 
-0.19192582 0.9813904 0.006114883 
-0.24584253 0.9693095 -0.00076265825 
-0.16210234 0.98491037 -0.06061703 
-0.05331365 0.99105805 -0.122317865 
-0.011096813 0.99120295 -0.13188525 
0.017426485 0.999392 -0.030200586 
0.05286215 0.99148524 0.119007684 
0.070416205 0.98740494 0.14167991 
0.1032626 0.9859078 0.13161623 
0.10960899 0.9700885 0.21659675 
-0.045598224 0.89283234 0.44807503 
-0.7168095 0.5888446 0.37342516 
-0.9492786 0.05970891 -0.30871534 
-0.71999294 -0.113129504 -0.68469846 
0.19562127 -0.9688783 0.15168142 
0.20898089 -0.9703267 0.12162742 
0.56627876 -0.77113855 0.29098785 
0.6844598 0.67052966 0.28619012 
0.4398848 0.8978281 0.020152774 
0.35234094 0.93334204 0.068765216 
0.18448283 0.97542477 0.120468974 
0.09516925 0.9934173 0.06375609 
0.07515488 0.99551886 0.057393167 
0.03559164 0.99820065 0.048256774 
0.04428909 0.99900615 -0.005023702 
0.10019156 0.99490345 -0.011350865 
0.092339024 0.9933211 0.069186926 
0.02156 0.9926268 0.11927843 
-0.05780544 0.9938871 0.0940583 
-0.07141453 0.9972557 0.019526027 
-0.058206476 0.9979994 0.024679998 
-0.12779717 0.99113184 0.036408514 
-0.21534799 0.9750662 0.053585388 
-0.2682967 0.9611335 0.06511046 
-0.18267214 0.9826367 0.032497033 
-0.07519771 0.99716675 -0.00197866 
-0.034414083 0.9992886 -0.015427892 
-0.017884627 0.99811125 0.058771413 
-0.014303368 0.98632556 0.16418721 
-0.020157214 0.98747796 0.15646365 
-0.00024487666 0.9926497 0.12102327 
-0.0031544038 0.991477 0.13024342 
-0.06299389 0.9846937 0.16251196 
-0.33270028 0.9405521 0.06835357 
-0.49248418 0.84575063 -0.20534219 
-0.4601547 0.81581587 -0.35028857 
0.029493617 -0.71183115 0.70173115 
-0.11870454 -0.7874095 0.60489297 
0.120112196 -0.5912347 0.7975053 
0.39834577 0.84909624 0.3469242 
0.32509187 0.9455807 0.013868685 
0.23990412 0.970765 -0.007838537 
0.0854942 0.9962948 -0.009349724 
0.042581562 0.9967699 -0.06809375 
0.080770254 0.9960923 -0.035725698 
0.07578303 0.99712366 -0.001176007 
0.06865687 0.9972272 -0.02871095 
0.1101508 0.993861 -0.010352269 
0.10168489 0.9900998 0.09676089 
0.046854652 0.9883484 0.14481728 
-0.006620255 0.99382424 0.11076853 
-0.006821703 0.99888617 0.046689246 
-0.017647307 0.99633694 0.08367389 
-0.1198191 0.98712283 0.105980754 
-0.21714073 0.97138244 0.09626109 
-0.2304129 0.96846086 0.094834045 
-0.11399597 0.9890008 0.09424588 
-0.038565196 0.9939515 0.10282573 
-0.041599706 0.9931227 0.1094385 
-0.04480523 0.9879528 0.14812738 
-0.065262586 0.97968364 0.1896335 
-0.08230054 0.9810866 0.175202 
-0.05085672 0.9893901 0.13609107 
-0.040227152 0.9940431 0.101293035 
-0.055335097 0.9947189 0.086443655 
-0.17815767 0.9837765 0.021060385 
-0.26130253 0.96239036 -0.07433642 
-0.2775582 0.95402193 -0.11315293 
-0.17996071 0.45024765 0.8745806 
-0.27732575 0.6240847 0.7304853 
-0.14731719 0.7745959 0.6150601 
0.07280366 0.97631884 0.20371813 
0.1491421 0.98820716 -0.034688983 
0.1157032 0.989726 -0.08399565 
0.016661964 0.9956785 -0.09136157 
-0.019945452 0.99176073 -0.12654242 
0.019328712 0.99591124 -0.0882457 
0.05345719 0.99565643 -0.07622813 
0.06457085 0.9950371 -0.07570926 
0.105927855 0.9941804 -0.0196152 
0.108201966 0.98918027 0.099069454 
0.076913245 0.987725 0.13595521 
0.048603266 0.99446815 0.09311819 
0.05227354 0.99812645 0.031797774 
0.033152964 0.9961227 0.081489354 
-0.0635231 0.9867087 0.14956878 
-0.16449593 0.9748756 0.15019517 
-0.15832956 0.9793435 0.12577015 
-0.03542424 0.9891475 0.14259212 
0.012406855 0.9799494 0.19886014 
-0.024394255 0.97446716 0.22320127 
-0.03542588 0.973798 0.22463866 
-0.054688174 0.97577006 0.21185383 
-0.08212119 0.9790894 0.18611865 
-0.053115938 0.98594475 0.15840329 
-0.034756813 0.9939598 0.10409576 
-0.07985952 0.9942662 0.07111406 
-0.20000441 0.9796766 0.015235715 
-0.28167713 0.959496 -0.0050371406 
-0.3001307 0.9538968 -0.001555537 
-0.2635851 0.89670044 0.35560003 
-0.25393143 0.9251765 0.28207663 
-0.16023734 0.95951676 0.23162824 
-0.03700021 0.99714094 0.0658859 
0.015144698 0.9977854 -0.064769566 
0.021154717 0.99803454 -0.05898886 
-0.016994746 0.99852675 -0.051531963 
-0.080355644 0.99658585 -0.018963229 
-0.09059581 0.9951239 0.03899771 
-0.06277043 0.99800646 -0.006563416 
-0.022390772 0.9992798 -0.030636234 
0.027980823 0.999565 0.00933058 
0.05798839 0.99372387 0.09565718 
0.052655116 0.9932671 0.10318822 
0.051613044 0.9974003 0.050288435 
0.03858891 0.9992331 -0.0066442685 
0.0073957886 0.99976474 0.020392181 
-0.028522866 0.9911088 0.12996122 
-0.0683356 0.97882885 0.19293644 
-0.07185395 0.98388904 0.16370548 
-0.0150067415 0.9876606 0.1558892 
-0.007145633 0.9747955 0.22298594 
-0.025000473 0.96325403 0.26742613 
-0.010152372 0.9592066 0.28252384 
-0.02178438 0.9625353 0.27028012 
-0.056249112 0.973812 0.22028702 
-0.040388502 0.9829016 0.17964745 
-0.04187392 0.99240375 0.11567808 
-0.14403838 0.9874196 0.06523454 
-0.29921514 0.9539784 0.019889714 
-0.38776925 0.9210754 0.035430517 
-0.3898805 0.9180718 0.07167526 
-0.15481828 0.98549014 0.069573976 
-0.16561466 0.9840825 0.06444643 
-0.1222452 0.99176466 0.038196877 
-0.09278234 0.9952586 -0.029186469 
-0.092703804 0.99451256 -0.048487213 
-0.05910379 0.9981826 0.0117679695 
-0.07011082 0.9974408 0.014013592 
-0.15168469 0.98139906 0.1176761 
-0.22305687 0.9520349 0.20946437 
-0.22220117 0.9648252 0.14049609 
-0.14553116 0.9862718 0.07802955 
-0.08302703 0.9932015 0.08159262 
-0.02573534 0.99313 0.11415138 
-0.008635646 0.99534565 0.09598158 
-0.0022064967 0.9991319 0.041598998 
-0.031376414 0.99948436 0.00682881 
-0.07617637 0.99708873 0.0033649136 
-0.04784467 0.99578106 0.07830124 
0.020960163 0.98569083 0.16725495 
0.03649487 0.9840274 0.17423634 
0.022380536 0.98803353 0.15260692 
-0.02406623 0.98146695 0.19011447 
-0.01282971 0.9708965 0.23915571 
0.027575908 0.9570705 0.2885406 
0.0065831975 0.9528612 0.30333534 
-0.029114468 0.9702658 0.24028446 
-0.03698715 0.9852325 0.1671793 
-0.06249758 0.99327475 0.09746501 
-0.18647164 0.98135597 0.046569925 
-0.34395242 0.93870795 0.022894628 
-0.4302016 0.9020321 0.035561666 
-0.4336936 0.8957315 0.09785175 
-0.081257395 0.99623585 -0.030188102 
-0.08621162 0.9960399 -0.021726107 
-0.083668105 0.99463814 -0.06078385 
-0.10866058 0.9907442 -0.08135627 
-0.1351024 0.99052703 -0.024568234 
-0.12087858 0.9917135 0.04350372 
-0.15071818 0.9866038 0.06242565 
-0.23408245 0.951922 0.19761059 
-0.2956816 0.9098582 0.29108477 
-0.27653053 0.9338216 0.22695394 
-0.20113513 0.96620864 0.16120058 
-0.16273382 0.97766083 0.13303013 
-0.110644855 0.9890088 0.098078296 
-0.0682401 0.99534696 0.06802699 
-0.0547246 0.9970951 0.05297705 
-0.07926426 0.9944809 0.06873927 
-0.12377533 0.99008965 0.066348605 
-0.068428054 0.9944352 0.08010153 
0.06815704 0.9872915 0.14356248 
0.13756055 0.97312963 0.18465096 
0.13186044 0.97496635 0.17903475 
0.06193172 0.97919846 0.19322231 
0.055507127 0.9697412 0.23774137 
0.07152591 0.9516335 0.29879403 
0.011621858 0.9505983 0.3102061 
-0.01742331 0.9715506 0.23619063 
-0.023091005 0.99044126 0.13598907 
-0.03676506 0.9968516 0.07025218 
-0.15077955 0.98819304 0.027206829 
-0.3065117 0.9515594 0.024192696 
-0.4086444 0.9116062 0.044540692 
-0.43216774 0.8902797 0.14364223 
-0.09833564 0.9951533 -6.4446303e-06 
-0.03253425 0.99902165 -0.0299565 
-0.013239223 0.9965016 -0.08251801 
-0.06195093 0.99338555 -0.096681446 
-0.11805491 0.99278975 -0.02077505 
-0.13090242 0.9902719 0.047181174 
-0.17032132 0.98105353 0.09232934 
-0.23028329 0.95077085 0.20737527 
-0.24517772 0.92763746 0.28173858 
-0.25259617 0.93436277 0.25131956 
-0.25485218 0.9432009 0.21312577 
-0.2657511 0.94874275 0.17106582 
-0.21952523 0.96999 0.10453804 
-0.14891055 0.98628545 0.0711808 
-0.100925356 0.9918075 0.07830681 
-0.09430835 0.9883523 0.11943939 
-0.13029921 0.98095846 0.14402363 
-0.0853487 0.9855135 0.14655656 
0.05022009 0.98431796 0.16910408 
0.16451785 0.96575534 0.20062564 
0.22880104 0.9478892 0.22171171 
0.19680735 0.94986004 0.24296683 
0.17278582 0.94041824 0.2928456 
0.14486891 0.9239069 0.3541314 
0.049176995 0.9332029 0.3559689 
0.012143558 0.9554118 0.29502675 
0.014947317 0.98079914 0.19444712 
0.016273765 0.992807 0.11861497 
-0.06908106 0.9953785 0.06670442 
-0.20626739 0.97781384 0.03652248 
-0.33264184 0.9429472 0.01414016 
-0.39403293 0.9160089 0.075270616 
-0.11174106 0.99259996 0.04753298 
0.0051969653 0.9999866 -0.00011823463 
0.022544935 0.998867 -0.041910894 
-0.052710522 0.9979372 -0.03664902 
-0.121487804 0.992306 0.023866884 
-0.1282601 0.99070114 0.04539564 
-0.15504347 0.98517025 0.07349241 
-0.17720869 0.97159237 0.15686162 
-0.18496585 0.953642 0.23739135 
-0.28506675 0.917241 0.27821958 
-0.38959545 0.88424885 0.2575259 
-0.40038505 0.89449024 0.19894448 
-0.30228695 0.942521 0.14239728 
-0.17478131 0.9802619 0.09240219 
-0.08147529 0.9935959 0.07828817 
-0.06297858 0.98997587 0.1264181 
-0.11860144 0.9762148 0.1814895 
-0.09802075 0.9754767 0.19707143 
0.020586109 0.9835842 0.17927156 
0.14497879 0.97485965 0.16920349 
0.252013 0.94561625 0.20566826 
0.2797466 0.9237403 0.26162127 
0.2894202 0.9053718 0.3107054 
0.2562804 0.9000406 0.3524873 
0.15883398 0.92517745 0.34470046 
0.09608229 0.944672 0.31362897 
0.08398183 0.96668965 0.24178134 
0.07506475 0.98193866 0.1736719 
0.027533704 0.9915178 0.12702149 
-0.030487958 0.997393 0.06540455 
-0.13206999 0.9910853 -0.017539311 
-0.20105143 0.9795159 -0.011270765 
0.07367641 0.96837765 0.23836204 
0.19654576 0.9598946 0.19993033 
0.1347693 0.9854806 0.10327307 
0.00306557 0.9982607 0.058874696 
-0.09556762 0.9938369 0.05617052 
-0.12242048 0.99199325 0.031028545 
-0.15058653 0.98755234 0.045432698 
-0.16729099 0.9792456 0.11441903 
-0.20259885 0.9599114 0.19371086 
-0.39439017 0.87467873 0.2817687 
-0.60308766 0.7514103 0.2677086 
-0.6030499 0.77522063 0.18805268 
-0.40462333 0.897687 0.17446531 
-0.20514895 0.9737513 0.09860199 
-0.10444897 0.99345315 0.04627401 
-0.104739994 0.9909585 0.08384956 
-0.17245929 0.975425 0.13712783 
-0.16687086 0.9723664 0.16327201 
-0.0552376 0.9888043 0.13861778 
0.07195769 0.99206483 0.103099875 
0.17743556 0.9747846 0.1353209 
0.2332732 0.95013255 0.20695838 
0.29134622 0.92839146 0.23066564 
0.28298843 0.9296854 0.23580196 
0.21816543 0.946881 0.23626325 
0.14726217 0.95567125 0.2549636 
0.0923689 0.96831435 0.23202428 
0.062456705 0.977679 0.20060639 
0.07740728 0.98014253 0.18256192 
0.14666703 0.9824126 0.11556163 
0.12679553 0.991918 0.0046513313 
0.15385573 0.98758525 -0.03168286 
0.77299136 -0.089315996 0.6280979 
0.69448376 0.2698158 0.6670021 
0.35152143 0.85651606 0.37790623 
0.09493895 0.9864605 0.13372475 
-0.041316338 0.9983932 0.038782865 
-0.093636535 0.9955344 -0.011975919 
-0.15452912 0.9879765 -0.0048429444 
-0.20156741 0.9788938 0.033729136 
-0.28765294 0.9542646 0.08145485 
-0.5530267 0.8070516 0.20695251 
-0.83093923 0.4675465 0.30156296 
-0.8629415 0.43949133 0.24935794 
-0.6160276 0.7349556 0.28346124 
-0.34036124 0.92753786 0.15436246 
-0.21127526 0.97581685 0.056073226 
-0.20024589 0.9772617 0.06972253 
-0.25393268 0.96164644 0.10370383 
-0.25160453 0.95819277 0.13624227 
-0.16031717 0.9791782 0.124533124 
-0.048811417 0.99395686 0.0983224 
0.040988725 0.991906 0.120177165 
0.08819172 0.98087114 0.1735342 
0.14940105 0.97831416 0.14346048 
0.1568605 0.9836699 0.08825226 
0.15238298 0.985201 0.078476116 
0.12605879 0.9831367 0.13248214 
0.042771693 0.9799439 0.1946294 
0.010472189 0.9658114 0.2590344 
0.1316956 0.9491717 0.28588334 
0.32532936 0.92404526 0.20075154 
0.38943374 0.91954577 0.05269901 
0.55027044 0.8128612 -0.19094262 
0.19610116 -0.91683394 0.3477929 
0.22259888 -0.7394202 0.63537997 
0.23177618 0.489159 0.8408349 
0.10257522 0.9588452 0.26475307 
0.0041687763 0.9992553 0.038360745 
-0.051937073 0.9979493 -0.037412494 
-0.14786233 0.9883935 -0.034856968 
-0.25331184 0.9667853 -0.034048785 
-0.41971904 0.90749985 -0.016734287 
-0.7738329 0.61390465 0.15589686 
-0.89759356 -0.13197835 0.4206037 
-0.88438994 -0.23904626 0.40088838 
-0.8495052 0.30744386 0.42874163 
-0.5712171 0.79659134 0.19787207 
-0.3512622 0.93411654 0.06357084 
-0.2589896 0.9646858 0.048019394 
-0.26730797 0.9610187 0.07063824 
-0.26261297 0.9576524 0.11805241 
-0.200984 0.9699128 0.13738485 
-0.11688995 0.98275113 0.1433068 
-0.05259089 0.98562205 0.16057228 
-0.029034311 0.98330486 0.17963508 
-0.0077549866 0.99258226 0.12132782 
-0.011531928 0.99926543 0.036545772 
0.011386568 0.9999269 0.0040810164 
0.030531943 0.9978881 0.05733522 
-0.019140223 0.9842234 0.1758918 
-0.0021097357 0.9457506 0.32488662 
0.20761193 0.89210933 0.4012959 
0.5406144 0.74958926 0.38190585 
0.80948514 0.56770676 0.14980939 
0.8735426 0.10104957 -0.4761432 
-0.031472746 -0.98226863 0.1848184 
-0.11388571 -0.8990382 0.42280054 
-0.15634775 -0.100459374 0.98257995 
-0.024701072 0.95838517 0.28440776 
-0.030017715 0.9991742 0.02738732 
-0.05189765 0.9980051 -0.03595136 
-0.12440963 0.99138916 -0.0408632 
-0.26654243 0.960619 -0.0785263 
-0.51938105 0.84602517 -0.1203526 
-0.9260633 0.3773668 -0.0010598316 
-0.81483907 -0.49614036 0.29980317 
-0.76759195 -0.56569064 0.3013252 
-0.936011 -0.008652383 0.35186437 
-0.7250007 0.6636358 0.1842866 
-0.45436394 0.88567644 0.095554404 
-0.30802122 0.9493592 0.06196874 
-0.27921987 0.9587336 0.053536337 
-0.25635543 0.96196663 0.09435081 
-0.20345387 0.96879053 0.14160351 
-0.13687393 0.9764651 0.16667797 
-0.089604266 0.9815341 0.16900289 
-0.075229086 0.98484707 0.15625952 
-0.06659073 0.9909241 0.116769284 
-0.06293737 0.99620444 0.06013089 
-0.029605193 0.9993233 0.021827657 
0.0035138123 0.99961996 0.027344996 
-0.035314165 0.9933586 0.10950611 
-0.044905476 0.95469576 0.29417625 
0.08185975 0.8397179 0.5368174 
0.54392266 0.12891214 0.8291742 
0.86707306 -0.48121107 0.12891999 
0.64112276 -0.74028695 -0.20232853 
-0.035868585 -0.9940892 0.10247017 
-0.16856411 -0.94423723 0.28284645 
-0.4034446 -0.52515316 0.7492975 
-0.20735864 0.9653792 0.1582575 
-0.1262397 0.99190617 -0.013627758 
-0.1117237 0.99334633 -0.027944595 
-0.12308816 0.9921602 -0.021623295 
-0.23538359 0.9682974 -0.08363414 
-0.4864997 0.84965163 -0.20349519 
-0.89318484 0.38812727 -0.22710797 
-0.9193788 -0.3788679 0.105839185 
-0.8827208 -0.45073876 0.13281064 
-0.98522455 0.09267051 0.14403072 
-0.74547607 0.6583878 0.103879474 
-0.4818983 0.87045723 0.10039045 
-0.3268987 0.941293 0.08429003 
-0.2963985 0.95241743 0.071056105 
-0.29008812 0.9522301 0.09543016 
-0.27332562 0.95369613 0.12552594 
-0.26188907 0.95757717 0.12025072 
-0.23947614 0.9675645 0.08043687 
-0.19390756 0.97974986 0.04990092 
-0.12356705 0.9913296 0.044686504 
-0.062522195 0.9972121 0.040731363 
-0.027049484 0.99946076 0.018615184 
-0.042046152 0.998881 -0.021657383 
-0.12794094 0.99177915 -0.0023243327 
-0.18309316 0.9665174 0.17978048 
-0.23196235 0.80831325 0.5411315 
-0.026236733 -0.8602 0.5092815 
0.2216564 -0.9701574 0.09830199 
0.2471971 -0.96893346 0.007853411 
-0.0039079753 -0.99727285 0.073698975 
-0.19197254 -0.9647171 0.1801875 
-0.5594211 -0.70570207 0.43477893 
-0.3789061 0.91911846 0.10794178 
-0.23361199 0.97229046 -0.008766444 
-0.18309835 0.9829419 -0.017330889 
-0.12082851 0.9926707 0.0023134153 
-0.14548123 0.98887384 -0.031043557 
-0.2878355 0.94667625 -0.14475827 
-0.56107694 0.7753464 -0.2898803 
-0.8901928 0.37399942 -0.2601564 
-0.9572755 0.23224783 -0.17229246 
-0.8610504 0.50807005 -0.021380164 
-0.6301 0.7738248 0.06457065 
-0.42092413 0.89922976 0.119200885 
-0.29211444 0.94642603 0.13764791 
-0.284898 0.94741565 0.14572819 
-0.33919564 0.93062603 0.13741046 
-0.41616338 0.9044563 0.09363179 
-0.5090642 0.86071473 0.0049040136 
-0.54112494 0.8325279 -0.11866433 
-0.4354425 0.88469434 -0.16645037 
-0.24084625 0.96219283 -0.12719388 
-0.10257351 0.9939897 -0.03825353 
-0.05311607 0.9985694 -0.0061583295 
-0.086972065 0.9940317 -0.06585546 
-0.18335263 0.97668624 -0.11165006 
-0.26700962 0.96344036 -0.022103166 
-0.461264 0.86983687 0.17498389 
-0.41715202 -0.88790196 0.19394429 
-0.09274459 -0.99366593 0.06345478 
0.05200276 -0.9965884 0.06408844 
0.06239703 -0.9972456 0.04009745 
-0.109611794 -0.98854464 0.10375336 
-0.46129814 -0.82784486 0.31918156 
-0.4334893 0.85933405 0.27135226 
-0.2899817 0.9549809 0.06262643 
-0.22977892 0.973121 -0.015406548 
-0.12016675 0.99273056 0.0067853974 
-0.07412602 0.9968968 0.026497878 
-0.1405305 0.9899865 -0.013342558 
-0.28747314 0.95269734 -0.09862577 
-0.48423314 0.8671264 -0.11666169 
-0.5531365 0.8317676 -0.046933945 
-0.504761 0.86257064 0.03447382 
-0.4210109 0.90415627 0.07246587 
-0.34418377 0.93215466 0.112362914 
-0.27601838 0.94998246 0.14610705 
-0.28731558 0.9436861 0.16403176 
-0.41241246 0.90054625 0.13759463 
-0.6220109 0.7820062 0.039607894 
-0.8498 0.510965 -0.12944046 
-0.92166305 0.22163835 -0.31845537 
-0.8225068 0.40765247 -0.39661333 
-0.48574767 0.7864128 -0.38158113 
-0.22823144 0.9546389 -0.1912459 
-0.1257045 0.98971504 -0.068283334 
-0.1135398 0.9902549 -0.08064755 
-0.15624867 0.97887975 -0.13183668 
-0.18852283 0.9753582 -0.11461054 
-0.33504713 0.94195765 -0.021433866 
-0.5504225 -0.77554184 0.3091439 
-0.19216004 -0.9708774 0.14307876 
-0.01197674 -0.9955436 0.09353836 
0.27798954 -0.95931476 -0.04936594 
0.24205478 -0.9676791 0.070758805 
0.0072453953 -0.8336919 0.5521825 
-0.12533021 0.8329306 0.53899807 
-0.15441059 0.96747273 0.20038463 
-0.16840257 0.9845548 0.047879167 
-0.091127194 0.9953665 0.030680561 
-0.048475087 0.99732673 0.054677658 
-0.088785164 0.99391305 0.06522393 
-0.15863514 0.9859558 0.052213337 
-0.22173072 0.97368896 0.052586854 
-0.2306663 0.9678398 0.10039649 
-0.24746406 0.9611781 0.122058004 
-0.27677965 0.9543417 0.11236181 
-0.29385325 0.9505713 0.10032194 
-0.28863236 0.95219594 0.1000715 
-0.3372786 0.93519086 0.10798755 
-0.4986632 0.86302894 0.08072182 
-0.7594105 0.65058345 0.0060843453 
-0.9924225 0.11721836 -0.03684374 
-0.89920413 -0.4365569 0.029156463 
-0.9256108 -0.37844938 -0.004554033 
-0.8657135 0.27738482 -0.41665092 
-0.4604327 0.8248616 -0.32803237 
-0.23680592 0.95940703 -0.15317091 
-0.1333197 0.9860636 -0.09952132 
-0.103880756 0.9878088 -0.11594164 
-0.09620328 0.9916823 -0.085506216 
-0.17789988 0.9805878 0.082458414 
-0.46796748 -0.602897 0.6461592 
-0.19715823 -0.94807935 0.24954826 
-0.045912582 -0.9930924 0.10797936 
0.6694861 -0.6739205 -0.31244138 
0.9314049 -0.36228332 -0.035155546 
0.63924503 0.39270005 0.6611751 
0.15420744 0.87824345 0.45266837 
-0.0069247303 0.9608806 0.27687663 
-0.07145446 0.9891943 0.12801988 
-0.054084018 0.99656785 0.06267024 
-0.055905987 0.99681336 0.05690124 
-0.089883834 0.99256814 0.08203364 
-0.09913505 0.98821723 0.116615005 
-0.0866781 0.9857702 0.14402772 
-0.06743742 0.9814368 0.17953837 
-0.11745554 0.9773056 0.17628968 
-0.21892731 0.96434945 0.1486639 
-0.2924747 0.94924444 0.11573068 
-0.3058988 0.9480914 0.08688317 
-0.3459208 0.93543804 0.07276438 
-0.4842227 0.8735557 0.049282342 
-0.7350884 0.6761104 0.05019853 
-0.98332775 0.104514636 0.1488064 
-0.8208087 -0.5330812 0.20517717 
-0.8284211 -0.53618014 0.16195488 
-0.9664232 0.14674686 -0.21093014 
-0.5668415 0.7761796 -0.2761089 
-0.30005443 0.94006556 -0.16200003 
-0.14143664 0.9856946 -0.091662295 
-0.055465516 0.9957895 -0.072985694 
-0.02428855 0.9997049 -0.0006325526 
-0.026485065 0.96418506 0.26390475 
-0.28552854 -0.1931683 0.9387009 
-0.17131329 -0.90250015 0.39515224 
-0.052527685 -0.98138195 0.18474424 
0.847828 0.16820242 -0.50288755 
0.81556535 0.57714957 0.041851964 
0.54345196 0.8052051 0.23728617 
0.2755567 0.9050875 0.3238599 
0.043848183 0.94685733 0.31865147 
-0.060677562 0.98001736 0.1894313 
-0.048724122 0.99534124 0.08319755 
-0.03911796 0.9983475 0.04209485 
-0.05259983 0.99661446 0.0631895 
-0.041121595 0.99061334 0.13036229 
-0.032103557 0.98131573 0.189707 
-0.035613783 0.9790629 0.20041849 
-0.10731777 0.9785574 0.17580767 
-0.2359731 0.9596846 0.15271617 
-0.31994987 0.9387167 0.12823023 
-0.3064275 0.9480122 0.08587933 
-0.28795475 0.9567687 0.040935855 
-0.34903714 0.9370925 0.0055632317 
-0.55465 0.8295013 0.06550768 
-0.87100405 0.43274814 0.23255326 
-0.9322589 -0.21144694 0.29357058 
-0.9366669 -0.2087811 0.2811861 
-0.8862986 0.46198907 0.032264844 
-0.49830353 0.8606894 -0.10443824 
-0.29285827 0.95180833 -0.0910772 
-0.14859235 0.9872179 -0.057630178 
-0.032963943 0.99851954 -0.043269284 
0.021506479 0.99934936 0.028954014 
0.1099102 0.95703197 0.26834625 
0.15928765 0.43141446 0.8879803 
0.14231496 -0.7438141 0.6530597 
0.17469624 -0.9071363 0.3828643 
0.4752077 0.84785193 -0.2352121 
0.39447737 0.9184781 0.028031532 
0.36037308 0.9182792 0.16399589 
0.19488612 0.93541765 0.29498023 
0.02514835 0.95929193 0.28129432 
-0.014231737 0.9829387 0.18338221 
0.037199527 0.9931882 0.11042394 
0.080461934 0.99380666 0.07664314 
0.09427499 0.9918077 0.086196505 
0.10209695 0.9852596 0.13725793 
0.073579155 0.97902226 0.19000414 
0.044308282 0.98388827 0.17320707 
-0.03324328 0.9906323 0.13244848 
-0.18651788 0.9762703 0.11003401 
-0.30694863 0.9461228 0.10312299 
-0.2956309 0.9516555 0.0833918 
-0.21732861 0.97541296 0.036577363 
-0.19838783 0.9800697 -0.010282157 
-0.34075552 0.9393073 0.039845083 
-0.63650453 0.75636715 0.15090013 
-0.90605634 0.38740054 0.17024292 
-0.90079373 0.3771284 0.21527837 
-0.65169364 0.7458079 0.13807994 
-0.3472012 0.9373387 0.029114014 
-0.22790582 0.97358847 -0.013583786 
-0.13080585 0.99104536 -0.026814343 
-0.0513452 0.99823684 -0.02978287 
-0.0046134675 0.9999877 0.001803934 
0.13175012 0.98475313 0.113591924 
0.35088843 0.8419452 0.40988508 
0.633808 0.2923903 0.7160974 
0.76147145 0.041731372 0.6468538 
0.10542258 0.9910318 -0.08210981 
0.11607628 0.9932399 0.00092762994 
0.15421829 0.9794167 0.13022898 
0.08939673 0.97208923 0.21691184 
0.049822617 0.9766643 0.20891303 
0.061322667 0.9799692 0.18947294 
0.111514315 0.9757663 0.18826765 
0.18272294 0.96526587 0.1867466 
0.24672686 0.9481804 0.20019934 
0.26431084 0.9426742 0.20372838 
0.22315538 0.951173 0.21324079 
0.18158594 0.9682171 0.17199486 
0.091973186 0.9889043 0.116658464 
-0.06477508 0.99343514 0.09429093 
-0.1931395 0.97606534 0.0999685 
-0.19280009 0.9775896 0.084538765 
-0.11655085 0.9924471 0.038274415 
-0.10368175 0.99458617 0.0069669704 
-0.20482303 0.9771027 0.0576004 
-0.3842712 0.91139454 0.1472946 
-0.59712124 0.7860317 0.1600008 
-0.63815665 0.7406827 0.21010764 
-0.46363428 0.85885143 0.21775572 
-0.26251733 0.95144796 0.16072224 
-0.20341028 0.97476983 0.09191393 
-0.13348065 0.9904683 0.033992887 
-0.087656125 0.9960203 0.01612356 
-0.07409026 0.9969907 0.022812355 
0.018536743 0.9987352 0.046737004 
0.1333785 0.98054326 0.14403199 
0.18395899 0.94386274 0.27437642 
0.10257572 0.9474381 0.3030501 
-0.23029332 0.97179824 -0.050727382 
-0.14783493 0.988739 -0.023240186 
-0.043916035 0.9960194 0.07756775 
0.015411158 0.98958266 0.14313912 
0.06406879 0.9823612 0.17567497 
0.080400445 0.972675 0.21780527 
0.10260825 0.9587834 0.26496416 
0.1629122 0.938975 0.30296162 
0.25858545 0.9082521 0.3289553 
0.29977998 0.90770805 0.29359537 
0.29517215 0.9182141 0.2641141 
0.2807894 0.9317304 0.23029523 
0.18362525 0.9668269 0.17755984 
0.03923236 0.9898551 0.13655657 
-0.08682036 0.98680604 0.13666037 
-0.10927038 0.9857649 0.12777932 
-0.067898005 0.9932884 0.093638755 
-0.077430345 0.9947028 0.067609444 
-0.14613654 0.9858189 0.08249367 
-0.25563872 0.95873064 0.124436736 
-0.39482322 0.9076047 0.14271763 
-0.4482074 0.87452024 0.18526849 
-0.37538204 0.90094954 0.21766573 
-0.2646765 0.93547386 0.23416877 
-0.22144413 0.96193194 0.16015443 
-0.14398456 0.9862364 0.081278406 
-0.100520216 0.99315494 0.059489895 
-0.09599357 0.9952277 0.017526576 
-0.022278747 0.99961334 -0.016640443 
0.049886886 0.9987087 0.009601585 
0.017949903 0.99928176 0.033371836 
-0.09804793 0.99343544 0.05892935 
-0.4201636 0.9061188 0.049105 
-0.34926668 0.93695164 0.011599602 
-0.22232608 0.9738544 0.04667759 
-0.08373245 0.9936549 0.07509325 
0.010185756 0.99154043 0.12939821 
0.015325943 0.9801685 0.1975726 
0.019578492 0.9606511 0.2770672 
0.052581936 0.934621 0.35173702 
0.14844197 0.914091 0.37736297 
0.19059381 0.9281884 0.31959406 
0.21613435 0.93893844 0.26773244 
0.2505168 0.9331561 0.2578007 
0.18931364 0.954077 0.23215832 
0.07913497 0.98331076 0.16382231 
-0.047201388 0.9926027 0.11185679 
-0.10503112 0.9896964 0.09731219 
-0.10035744 0.9907006 0.09187331 
-0.103218034 0.99140537 0.080382794 
-0.121285155 0.9902764 0.068137094 
-0.18537636 0.98002696 0.071992494 
-0.27124077 0.9569191 0.10360725 
-0.30307633 0.94015354 0.15574428 
-0.29677072 0.9288138 0.22188316 
-0.25747618 0.9202446 0.2947134 
-0.21009132 0.95622844 0.20368826 
-0.12425001 0.98750275 0.096954785 
-0.07147941 0.9956018 0.06056344 
-0.05920284 0.99771935 -0.032420628 
-0.00090865936 0.9965252 -0.083287396 
0.05397499 0.9965831 -0.062521465 
0.012266953 0.99918437 -0.038473684 
-0.060553156 0.9981316 -0.008173773 
-0.4484815 0.8860042 0.11773276 
-0.4269528 0.90359205 0.035110965 
-0.3284207 0.94412374 0.027755864 
-0.17433737 0.9839738 0.037445474 
-0.054913707 0.9948419 0.08528957 
-0.03458324 0.9893823 0.14116158 
-0.024394402 0.9742684 0.22406712 
-0.0055830465 0.94587076 0.32449573 
0.04621488 0.9372345 0.34562358 
0.04217786 0.95759326 0.28501967 
0.0569146 0.97250843 0.22580534 
0.12330555 0.9704046 0.20763145 
0.12307369 0.9675804 0.22054762 
0.07515811 0.98172444 0.17483816 
-0.03374936 0.9959221 0.083667025 
-0.10551079 0.99317175 0.04977501 
-0.09406613 0.99315315 0.069270246 
-0.057107873 0.9953333 0.077783555 
-0.041555375 0.9968271 0.06788895 
-0.093781434 0.9941574 0.053442903 
-0.18495205 0.97954994 0.079212956 
-0.2320424 0.9628853 0.13787019 
-0.28653705 0.9330633 0.21746123 
-0.2997552 0.9096103 0.28767365 
-0.24977614 0.9540298 0.16564754 
-0.16637205 0.98469645 0.051897738 
-0.12292473 0.99233544 0.012644606 
-0.11586343 0.9869681 -0.11166757 
-0.07103252 0.98712254 -0.14333023 
-0.036932927 0.9932152 -0.11027006 
-0.056012556 0.99667555 -0.059165705 
-0.03509027 0.9988986 -0.031149503 
-0.437202 0.8972311 0.061893042 
-0.44674793 0.894564 0.013103899 
-0.36873636 0.92931694 0.020087318 
-0.21328223 0.9752693 0.05797031 
-0.08920462 0.99019325 0.107516706 
-0.05245322 0.98537326 0.16213644 
-0.036561325 0.97428674 0.22232535 
-0.014051599 0.9492032 0.31435 
-0.014190242 0.9463765 0.32275406 
-0.04815805 0.9604 0.27443182 
-0.030488487 0.9737794 0.22544247 
0.030917961 0.9840538 0.17516345 
0.023893978 0.9819006 0.18788442 
-0.00051918934 0.981521 0.19135351 
-0.05590174 0.9938648 0.09543508 
-0.092496164 0.99558526 0.015957816 
-0.0530048 0.9980116 0.034109153 
0.012045783 0.9979268 0.06322346 
0.00487476 0.99814296 0.060719844 
-0.07252757 0.99565905 0.058333855 
-0.15500261 0.9860135 0.0612512 
-0.18517129 0.97933096 0.08137878 
-0.23372391 0.966422 0.10677875 
-0.28185457 0.9480996 0.14719091 
-0.24574292 0.96759915 0.057985507 
-0.1691223 0.9855574 -0.008628383 
-0.133863 0.9894018 -0.056258086 
-0.14151849 0.9790796 -0.1462047 
-0.15104154 0.9837793 -0.09677182 
-0.17201026 0.98442805 -0.03624983 
-0.18507187 0.982642 0.012778263 
-0.14230968 0.9879591 0.060704175 
-0.3876079 0.92115927 0.03501188 
-0.39403343 0.91893905 0.016996762 
-0.3120251 0.9498456 0.020826552 
-0.1570045 0.9846496 0.076254524 
-0.055807155 0.9914521 0.11793322 
-0.047680255 0.9844157 0.16927017 
-0.062285747 0.9780166 0.19900809 
-0.04637371 0.9621606 0.26850817 
-0.056945443 0.95772755 0.28198433 
-0.074089035 0.95970577 0.27106434 
-0.025540637 0.9643285 0.2634733 
0.0051586227 0.97997683 0.19904485 
-0.05795233 0.98451114 0.16546711 
-0.08071858 0.97997415 0.18203063 
-0.053411108 0.9900285 0.13034923 
-0.018641792 0.9992483 0.033989515 
0.025345635 0.99966615 0.005014771 
0.062028896 0.9975577 0.032112524 
0.04371921 0.9982255 0.040430553 
-0.011372609 0.99869925 0.04970526 