# OOMMF OVF 2.0
# Segment count: 1
# Begin: Segment
# Begin: Header
# Title: m
# meshtype: rectangular
# meshunit: m
# xmin: 0
# ymin: 0
# zmin: 0
# xmax: 1.6e-07
# ymax: 1.6e-07
# zmax: 5e-09
# valuedim: 3
# valuelabels: m_x m_y m_z
# valueunits: 1 1 1
# Desc: Total simulation time:  8.13260470046709e-11  s
# xbase: 2.5e-09
# ybase: 2.5e-09
# zbase: 2.5e-09
# xnodes: 32
# ynodes: 32
# znodes: 1
# xstepsize: 5e-09
# ystepsize: 5e-09
# zstepsize: 5e-09
# End: Header
# Begin: Data Text
-0.044727683 -0.9884322 0.14491831 
0.022374839 -0.9806415 0.1945296 
0.18457301 -0.9390842 0.28992027 
0.39847243 -0.86138797 0.3150087 
0.6509562 -0.6743429 0.34859416 
0.87844014 -0.34273157 0.33298346 
0.8065755 0.42492855 0.41094002 
0.7434985 0.45062703 0.49411076 
0.56630623 -0.27459264 0.77710754 
0.3120226 -0.8370545 0.4494237 
0.5287698 -0.8318359 0.16867544 
0.80864763 -0.5874584 0.031331696 
0.4781594 0.83375406 -0.2760756 
0.26497144 0.8956987 -0.35709107 
0.21200147 0.97407025 -0.07901071 
0.11932986 0.9864264 0.11279826 
0.063380666 0.9979711 -0.0060546645 
0.11939676 0.9701832 -0.21092425 
0.2257781 0.9645287 -0.13678037 
0.24532865 0.954407 -0.1700628 
0.0067783915 0.9989462 -0.045392852 
0.023284394 0.98813486 0.15181339 
0.3801629 0.90417296 0.19480094 
0.227156 -0.9216774 0.31450102 
0.10163006 -0.94546646 0.30945855 
-0.031542595 -0.95911306 0.28126007 
-0.0068323533 -0.948416 0.31695506 
0.5893107 -0.51774335 0.62020546 
0.32590663 0.9446163 -0.03853421 
0.2507637 0.9516022 -0.17768137 
0.20113061 0.9716014 -0.12464866 
0.26296598 0.96468586 -0.015173072 
-0.03690357 -0.94436455 0.32682377 
-0.054919578 -0.9334609 0.35444978 
0.074762024 -0.83821243 0.54019487 
0.46859366 -0.5398898 0.69924176 
0.6360961 0.21832582 0.7400781 
0.71286917 0.59963703 0.36366627 
0.5443112 0.8111048 0.2140896 
0.49969253 0.8101894 0.3064318 
0.5445199 0.45733428 0.7030957 
0.43743524 -0.5854099 0.68260217 
0.66963965 -0.6400038 0.37679952 
0.82469547 -0.44046706 0.35477632 
0.47724038 0.8782601 -0.03001424 
0.3074646 0.94475496 -0.113594234 
0.19119409 0.9753753 0.10994508 
0.08416524 0.9812178 0.17357379 
0.06676535 0.9976702 0.014026383 
0.11973109 0.9812918 -0.15076776 
0.20170471 0.9768943 -0.07066018 
0.20337091 0.9772473 -0.06023297 
0.042105153 0.9990947 0.006074269 
0.08312911 0.9910831 0.10413423 
0.45490494 0.8509034 0.2627262 
0.41091242 -0.7281238 0.5486226 
0.2547475 -0.80458957 0.53641343 
0.016190829 -0.85529906 0.5178817 
-0.4773695 -0.62199515 0.62067753 
-0.28171083 0.6508218 0.705032 
-0.016636904 0.9826342 0.18480636 
0.14297915 0.9889612 0.03889475 
0.1015911 0.994826 -0.0006365237 
0.05667065 0.9979191 -0.030756485 
-0.09316614 -0.6997806 0.70825654 
-0.3931263 -0.6497906 0.6505566 
-0.55729747 -0.21737769 0.801353 
-0.2380493 0.5720588 0.78490853 
0.11357976 0.8540948 0.5075645 
0.2211047 0.96668863 0.1289419 
0.21728322 0.97355795 0.07051918 
0.18127678 0.97382283 0.13714191 
0.16784357 0.9526486 0.25355303 
0.28220153 0.84460664 0.45497468 
0.4322358 0.8479795 0.30676228 
0.5133643 0.76993656 0.3790184 
0.27002022 0.9467639 0.17529203 
0.15600616 0.9801476 0.12236382 
0.009951322 0.9837658 0.17918152 
-0.033628985 0.9931935 0.11151636 
0.10585153 0.9940807 0.02447664 
0.2554939 0.96075726 -0.10801997 
0.31034136 0.946915 -0.083906695 
0.26001155 0.96483916 -0.038464036 
0.13914894 0.9900365 0.02157047 
0.13693032 0.9902132 0.026980324 
0.24966788 0.9538077 0.16708374 
0.4254484 0.6860644 0.59017736 
0.62936753 0.4719434 0.6173864 
0.17716071 0.33174396 0.92658526 
-0.4768667 0.6799573 0.5570066 
-0.29647294 0.8985174 0.32368237 
-0.106808774 0.97955745 0.17046791 
0.07546229 0.987743 0.13663562 
0.12174567 0.99254286 -0.006066608 
0.1918378 0.9576632 -0.21466132 
-0.07821339 0.15444137 0.98490125 
-0.3835466 0.44200402 0.81087893 
-0.3153199 0.79835284 0.5130362 
-0.11877107 0.95429695 0.27424568 
-0.020806678 0.97947264 0.20050053 
0.010579123 0.9996836 0.022818359 
0.069510505 0.9970734 0.031828765 
0.07754746 0.9892147 0.12426033 
0.053725455 0.9883285 0.1425496 
0.049716517 0.97322947 0.22439416 
0.08257856 0.9879558 0.13085881 
0.15965378 0.98009473 0.11800483 
0.13426337 0.98838603 0.07117958 
0.07282286 0.99116015 0.11089894 
-0.016414836 0.9873106 0.15795073 
-0.0023662476 0.9868281 0.16175523 
0.1244207 0.97899556 0.16151518 
0.28899103 0.956271 0.04505525 
0.35977846 0.9309525 -0.062345885 
0.31046903 0.94382674 -0.113137886 
0.1842935 0.98188984 -0.043911844 
0.16708182 0.985849 -0.0136222 
0.2000213 0.9796939 -0.01384148 
0.28017396 0.95912653 0.039736006 
0.3419445 0.9362423 0.080774106 
0.08345681 0.9687096 0.23374492 
-0.2667424 0.94471955 0.19066557 
-0.19992217 0.9526043 0.22929531 
-0.07909175 0.98059416 0.17938712 
0.084050596 0.98007005 0.1799949 
0.1681378 0.97911257 0.11431677 
0.24781975 0.96703 0.058638215 
0.12332698 0.80480146 0.58059037 
-0.017621826 0.92545146 0.37845632 
0.032855164 0.98359317 0.1773845 
0.11153509 0.9913115 0.0697238 
0.06315035 0.988633 0.13644382 
0.025150249 0.990187 0.13746771 
0.064394034 0.99051476 0.1213836 
0.027623117 0.9778241 0.20759845 
-0.04688536 0.9729234 0.2263223 
-0.07475391 0.97332287 0.21692038 
-0.041047957 0.99317306 0.10918988 
0.053751886 0.9982551 0.02444852 
0.12668681 0.99166244 -0.023581479 
0.14179944 0.98681414 0.07804313 
0.09854011 0.9832923 0.1530561 
0.08444871 0.97504056 0.20533977 
0.15737703 0.9747979 0.15811872 
0.26089436 0.96522313 0.016693009 
0.21974212 0.9728995 -0.07197162 
0.16228965 0.98506904 -0.057456344 
0.04844623 0.99641913 -0.06929557 
0.035292707 0.9953811 -0.089280866 
0.09419167 0.9778762 -0.18677834 
0.094479725 0.9560503 -0.27756336 
0.020798372 0.97706157 -0.21193908 
-0.026389394 0.99727494 0.06889352 
-0.06480014 0.9735649 0.21902566 
0.012202154 0.96017855 0.27912065 
0.037773844 0.9767298 0.21112105 
0.17388028 0.967119 0.185598 
0.24186085 0.96023786 0.13945076 
0.2919854 0.9531302 0.07929256 
0.27787414 0.9257455 0.25647855 
0.16019061 0.97567666 0.14964661 
0.15647249 0.9846092 0.07785453 
0.17978887 0.98221356 0.054153785 
0.120644115 0.98172027 0.14720891 
0.056269396 0.9794929 0.1934615 
0.07116766 0.99374396 0.086069904 
-0.022838302 0.99312544 0.1148052 
-0.094291 0.9757876 0.1973522 
-0.083421096 0.97972775 0.18213873 
-0.03630118 0.9968053 0.071143255 
0.060022533 0.99684006 -0.05203202 
0.13403732 0.9865542 -0.093513764 
0.1866471 0.98208964 0.025744965 
0.15004635 0.9823997 0.11125151 
0.06870993 0.98399615 0.16440997 
0.076618746 0.98972183 0.12074877 
0.14975734 0.9887074 -0.005508969 
0.1072953 0.9916668 -0.07130724 
0.051713977 0.9986001 -0.0111100245 
-0.061413966 0.99280375 -0.10280646 
-0.12664032 0.9771176 -0.17089069 
-0.052048884 0.9701906 -0.23668799 
-0.03472748 0.96841025 -0.24693233 
-0.0652068 0.98851746 -0.13631308 
0.03841877 0.99201304 0.120142445 
0.154346 0.9774809 0.14390483 
0.1392747 0.9829853 0.11976046 
0.0892373 0.989874 0.110391304 
0.13165785 0.98990303 0.052518502 
0.13501829 0.9890694 -0.059261028 
0.19748503 0.97612756 -0.09041415 
0.19574502 0.9796833 0.04364084 
0.12562215 0.9917456 -0.025685666 
0.10825743 0.99061817 -0.083402194 
0.096056014 0.9887139 -0.11496952 
0.1278814 0.99155575 -0.021529647 
0.12449271 0.99100256 0.049148623 
0.11436849 0.9927913 -0.035852842 
0.0061457083 0.9993941 -0.03425902 
-0.06834734 0.9933709 0.09242906 
-0.08720609 0.9939765 0.06637769 
-0.053904127 0.99794686 -0.03459116 
0.022992022 0.9850029 -0.17099981 
0.06627604 0.9739226 -0.21698439 
0.09405615 0.99215156 -0.08239378 
0.065465294 0.9978107 0.009388447 
0.016297342 0.9974427 0.06958726 
-0.021944385 0.9936396 0.11044847 
-0.023796055 0.99965054 0.011512671 
-0.048573524 0.99707574 -0.058997862 
-0.07656291 0.99674845 0.025115732 
-0.14655359 0.9891065 -0.013799901 
-0.18371747 0.98064154 -0.067750365 
-0.12521432 0.9846518 -0.12158262 
-0.101321906 0.9943721 -0.030953908 
-0.01079417 0.99282634 0.119077444 
0.096331075 0.9848726 0.14403611 
0.1780408 0.9826198 0.052534092 
0.124639265 0.98926795 0.07624976 
0.08551401 0.9893279 0.117973186 
0.022851225 0.99972737 0.0048013423 
-0.012093603 0.99306977 -0.116902374 
-0.030790322 0.98458743 -0.1721615 
0.1524415 0.9866696 -0.056962114 
0.123623826 0.99086213 -0.053940088 
0.08496849 0.99450284 -0.061191525 
-0.02643158 0.99448174 -0.10152565 
0.010890223 0.9934268 -0.11394965 
0.08191903 0.99238825 -0.091950774 
0.06309777 0.99458784 -0.082546145 
-0.05383815 0.9979103 -0.03572986 
-0.10332623 0.9946335 -0.0052859364 
-0.09351711 0.9874973 -0.12689967 
-0.050133847 0.9499569 -0.30833173 
0.01175058 0.8555126 -0.51764876 
-0.075751714 0.8232053 -0.5626676 
-0.1202579 0.9488091 -0.2920605 
-0.08834597 0.9938439 -0.066852435 
-0.050077632 0.9987429 0.002217306 
-0.092163 0.99216586 0.08433758 
-0.16643122 0.9818368 0.09108944 
-0.16091865 0.9862246 0.038293622 
-0.1924152 0.9812877 0.007139751 
-0.30022624 0.9495351 -0.090815544 
-0.27036765 0.93566513 -0.22678638 
-0.19099933 0.9465033 -0.26009762 
-0.26174948 0.9556423 -0.13503788 
-0.21455765 0.9765453 0.018010598 
-0.111724526 0.99369586 -0.009286768 
0.009541824 0.99983424 0.015506801 
0.09488328 0.99346274 0.06347362 
0.07529048 0.9959715 0.048705004 
-0.05753455 0.9945246 -0.08723971 
-0.103248 0.98539567 -0.1354081 
-0.15765867 0.9675491 -0.19746529 
0.21529715 0.9727458 -0.0860977 
0.1851924 0.9823265 -0.027174411 
0.08674813 0.9961351 0.013773865 
-0.07103471 0.9968254 -0.035961613 
-0.058303613 0.9941014 -0.09144981 
0.004895507 0.99459046 -0.1037594 
-0.06286358 0.9940269 -0.0892118 
-0.18859226 0.97791874 -0.09004495 
-0.21045357 0.9621453 -0.17316364 
-0.21043709 0.8786092 -0.42867514 
-0.13241754 0.4232794 -0.8962702 
-0.022626488 -0.2267563 -0.97368866 
-0.275109 -0.4354701 -0.85713524 
-0.6516183 0.24141623 -0.7191049 
-0.4772939 0.8467438 -0.23497973 
-0.25871834 0.9610698 -0.09700369 
-0.2188162 0.9752442 0.031910855 
-0.31481242 0.94546336 0.083620094 
-0.33034816 0.9418755 0.06116151 
-0.4063612 0.9132666 -0.028542018 
-0.5960508 0.76923364 -0.23022395 
-0.53427076 0.6548529 -0.5345301 
-0.38786304 0.7273814 -0.5661083 
-0.42073622 0.8609428 -0.2859347 
-0.37196332 0.92374027 -0.0913628 
-0.21386336 0.9724024 -0.093252145 
-0.047482368 0.9970064 -0.06102195 
0.051603626 0.9981179 -0.033133894 
0.06185184 0.9974758 -0.03487628 
-0.036445428 0.9885009 -0.14675768 
-0.08019045 0.9810153 -0.1765746 
-0.15871407 0.9535567 -0.25600672 
0.32547605 0.9451971 -0.025840586 
0.26473162 0.9629822 0.05082005 
0.14613093 0.9770164 0.15519278 
0.054521363 0.99805367 0.030272055 
0.06348913 0.99250644 -0.10440365 
0.047239102 0.9890493 -0.13982117 
-0.07369145 0.9892838 -0.12604469 
-0.15835848 0.9760423 -0.14921193 
-0.27832234 0.9350807 -0.2194558 
-0.54760295 0.7234751 -0.42037454 
-0.2759547 -0.9037686 -0.327187 
-0.14374904 -0.9477547 -0.28477606 
-0.2856999 -0.92828786 -0.23802803 
-0.71457446 -0.67286474 -0.19140683 
-0.9144142 0.3627645 -0.17957889 
-0.5697077 0.8150633 -0.10537992 
-0.3274284 0.9428941 -0.061167136 
-0.3861876 0.9134755 -0.12814741 
-0.47356004 0.852306 -0.22207075 
-0.65175784 0.6805085 -0.33484328 
-0.8578635 0.08944549 -0.5060334 
-0.60826087 -0.44999477 -0.6538529 
-0.5318471 -0.27187422 -0.80201185 
-0.60923004 0.43810213 -0.66098815 
-0.4184489 0.832961 -0.3620451 
-0.22539534 0.9434683 -0.24303225 
-0.043329146 0.97948223 -0.19681756 
0.043591104 0.9859348 -0.16134591 
0.07733125 0.9920497 -0.099284954 
0.10997401 0.99058783 -0.08149617 
0.19570951 0.97099864 -0.13732967 
0.24938844 0.9210881 -0.29900214 
0.86423403 0.5027131 0.019471416 
0.7458043 0.63993573 0.18509002 
0.538655 0.7192873 0.43872172 
0.30179727 0.9400856 0.15861154 
0.11936078 0.99182606 -0.045100506 
0.006674535 0.9980427 -0.062179297 
-0.06566288 0.99763966 -0.020088397 
-0.08909425 0.99438304 -0.057137 
-0.23164381 0.9674671 -0.101727866 
-0.552275 0.8188705 -0.15634412 
-0.18107574 -0.969465 -0.16537602 
-0.12385113 -0.99228877 0.0049048713 
-0.29961967 -0.9459991 0.123748936 
-0.68217546 -0.69629204 0.22319092 
-0.9120683 0.40389732 0.070699275 
-0.5882501 0.80796283 -0.034026865 
-0.35263732 0.93239886 -0.07924162 
-0.41416627 0.89087313 -0.18657854 
-0.54139096 0.751092 -0.37783143 
-0.7357419 0.4151417 -0.5351086 
-0.7939265 -0.27162 -0.54397 
-0.52243334 -0.68511826 -0.5076185 
-0.6091732 -0.50419986 -0.61211973 
-0.6822775 0.18184038 -0.7081184 
-0.38404757 0.78133 -0.49196643 
-0.25471848 0.9124954 -0.3201105 
-0.07985786 0.9550967 -0.28532976 
0.012001226 0.9738691 -0.226793 
0.033037744 0.99053264 -0.133243 
0.14426774 0.98702097 0.070544325 
0.54436314 0.7766496 0.31699237 
0.8066968 -0.3342216 0.48737693 
0.4308207 -0.8947164 0.11779772 
0.4744766 -0.82281125 0.31281576 
0.53939885 -0.52019703 0.6621511 
0.37808523 0.892465 0.246085 
0.026207136 0.9993793 0.023546081 
-0.09518436 0.99452287 0.043176003 
-0.1241203 0.9859144 0.11210217 
-0.10769563 0.98965716 0.09476547 
-0.12137311 0.9923331 -0.02331433 
-0.2940649 0.92591906 -0.23706496 
-0.042682275 -0.9748577 -0.21870263 
-0.060790695 -0.99806225 0.013283298 
-0.2524058 -0.94543177 0.20603442 
-0.5393976 -0.7364809 0.40822318 
-0.7245559 0.28864995 0.6258594 
-0.54023325 0.82397527 0.17091775 
-0.34640872 0.93574446 -0.06620657 
-0.42749682 0.8813078 -0.2013531 
-0.5960083 0.72897255 -0.3367092 
-0.7462867 0.53895736 -0.39061636 
-0.8327176 0.14076586 -0.5355058 
-0.68027145 -0.23057212 -0.6957495 
-0.73279876 -0.02367271 -0.6800336 
-0.6214434 0.5294379 -0.57749784 
-0.42904988 0.84367025 -0.32270235 
-0.41081488 0.8967033 -0.16478583 
-0.2431231 0.9677227 -0.06636308 
-0.04371343 0.99857944 0.030468041 
0.047200475 0.9897777 0.13458203 
0.1608711 0.86001444 0.48424748 
0.086352825 -0.77719164 0.62331074 
0.25587633 -0.96458584 0.06404261 
0.12344328 -0.9834943 0.13229045 
0.094291896 -0.9647319 0.2457671 
-0.080407076 -0.8913184 0.4461908 
0.079021856 0.9664544 0.24437985 
-0.08259687 0.98988426 0.115355335 
-0.109918766 0.9862599 0.12332682 
-0.07067211 0.9822716 0.1736317 
0.006718323 0.9842429 0.17669396 
0.111545555 0.99005383 0.08573821 
0.21107247 0.9640116 -0.1616479 
0.25001955 -0.786811 -0.56428593 
0.0559331 -0.99277437 -0.1061627 
-0.13003667 -0.971676 0.19732308 
-0.38711804 -0.76723003 0.5113686 
-0.54387224 0.12848653 0.8292733 
-0.37758017 0.84881383 0.3700653 
-0.20957483 0.97609055 0.057668693 
-0.27555746 0.95583904 -0.102175854 
-0.41169992 0.9006452 -0.13907334 
-0.4860551 0.8632754 -0.13603666 
-0.59430075 0.7687528 -0.2362746 
-0.61733866 0.71215487 -0.334258 
-0.5710338 0.7438776 -0.34722716 
-0.4244798 0.8585371 -0.28763017 
-0.38433674 0.91153127 -0.14627413 
-0.38498172 0.92254287 -0.026529947 
-0.23844957 0.96907425 0.0635374 
-0.08317945 0.9873147 0.13524413 
-0.097538985 0.95921075 0.26533175 
-0.2469764 0.7352907 0.63115007 
-0.25262845 -0.9014222 0.35159183 
-0.025185378 -0.99968284 0.00020681428 
-0.08030144 -0.99578446 0.044328015 
-0.04782641 -0.99193305 0.11739507 
-0.1628861 -0.9639478 0.21041137 
-0.0051476173 0.98459506 0.17477416 
-0.07821726 0.9893692 0.12259978 
-0.062621266 0.9894058 0.1309757 
0.0336386 0.9831408 0.1797296 
0.19404885 0.96006143 0.20156224 
0.36014926 0.9243275 0.1261399 
0.54824954 0.8158982 -0.18366416 
0.7764012 0.12845369 -0.6170095 
0.56451666 -0.8067934 -0.17437175 
0.20813546 -0.8513152 0.48160368 
-0.19701464 -0.23745005 0.95121115 
-0.29273722 0.6352993 0.71463263 
-0.17992617 0.9318382 0.31512573 
-0.052899297 0.9955147 0.07843602 
-0.07322935 0.9950347 -0.06740605 
-0.16473262 0.98302114 -0.080825634 
-0.21364938 0.9757288 -0.04803339 
-0.25605363 0.96235394 -0.09116774 
-0.25747973 0.959925 -0.11067175 
-0.32961202 0.9413396 -0.07235853 
-0.37745437 0.92249346 -0.08083489 
-0.37644362 0.9250653 -0.050441597 
-0.27161053 0.962394 0.005048365 
-0.10241829 0.9932177 0.055038027 
-0.10578929 0.9885198 0.10787712 
-0.35702708 0.9000829 0.24976487 
-0.82475966 0.1295102 0.55045307 
-0.26735386 -0.96358955 0.004137508 
-0.05982409 -0.9864414 -0.15282218 
-0.18582389 -0.9824747 0.01459447 
-0.03649691 -0.99300027 0.11233165 
0.058116052 -0.9854826 0.15952009 
0.006734691 0.9834968 0.18080077 
-0.103004634 0.9904777 0.091345765 
-0.12546878 0.9883457 0.08619977 
-0.049300313 0.9904582 0.1286943 
0.15708211 0.97360545 0.16558315 
0.35150963 0.9248059 0.14551684 
0.4616177 0.88688695 -0.018455917 
0.6198712 0.7832111 -0.048374563 
0.9761568 0.17095874 -0.13375773 
0.76656276 0.20251712 0.60940003 
0.13496692 0.62587845 0.76815367 
-0.086000286 0.8818477 0.46362546 
-0.043624 0.9730118 0.22659443 
0.03400216 0.99508524 0.093001544 
0.068112254 0.99767494 0.0023425696 
0.043704975 0.99588776 -0.079356275 
-0.02244486 0.99617624 -0.0844348 
0.018312598 0.99613094 -0.08595337 
0.009054404 0.9964524 -0.08367022 
-0.14930981 0.98695797 -0.060170505 
-0.27140802 0.9620401 -0.028574433 
-0.25712585 0.96597046 0.028063131 
-0.16687693 0.98448414 0.054251544 
-0.010476881 0.99959075 0.02661922 
-0.07852877 0.9957118 0.048901763 
-0.3067564 0.90848625 0.2838191 
-0.40472192 -0.10826932 0.9080076 
-0.32428235 -0.94308364 0.07371808 
-0.12683825 -0.9557063 -0.26558903 
-0.1934562 -0.98061514 0.031125471 
-0.09023715 -0.9851824 0.1458519 
0.00013184636 -0.95852554 0.2850066 
-0.3713729 0.91671026 0.14739257 
-0.22201051 0.97424275 0.039528903 
-0.14940092 0.9883148 0.030219141 
-0.14406703 0.9884029 0.04800545 
-0.049093638 0.99416643 0.096036956 
0.09743689 0.9919325 0.0810926 
0.21400693 0.9742478 -0.07100884 
0.27501535 0.9493679 -0.15187941 
0.5322882 0.78767836 -0.31021312 
0.4126796 0.9010494 0.13343798 
0.11599386 0.94343084 0.31061846 
-0.0031003128 0.9702015 0.24227978 
-0.018981889 0.9963731 0.082947515 
0.022192055 0.9988676 0.04208367 
0.1163113 0.9898401 0.08178159 
0.11738099 0.99200857 0.04626866 
0.11082251 0.9938195 -0.006429099 
0.20599185 0.96277225 -0.17503458 
0.117342085 0.97751117 -0.17522252 
-0.005598583 0.99257404 -0.12151364 
-0.12149376 0.9925906 -0.0018017498 
-0.17288648 0.98199224 0.076168306 
-0.1686772 0.9847738 0.042055838 
-0.08939354 0.9959684 0.007478949 
-0.16807608 0.98446494 0.050786518 
-0.37289768 0.8784998 0.29863936 
-0.07729287 -0.74717075 0.66012245 
-0.20738798 -0.9663579 0.15212785 
-0.2062095 -0.97547984 -0.07692058 
-0.20628901 -0.97541034 -0.07758612 
-0.20734859 -0.9664638 0.15150693 
-0.077992365 -0.7468333 0.660422 
-0.37307614 0.87815416 0.29943186 
-0.16676725 0.98472387 0.050077535 
-0.08653331 0.99621296 0.008473558 
-0.16516565 0.9852557 0.044628102 
-0.16943601 0.9825653 0.07653127 
-0.1189267 0.9928875 -0.0055534197 
-0.005097457 0.99153596 -0.12973222 
0.116152294 0.9761363 -0.18348451 
0.20797648 0.9608625 -0.18300013 
0.1137044 0.9934607 -0.010354921 
0.11923541 0.99181634 0.045643892 
0.117095366 0.98972446 0.08206338 
0.021803737 0.998897 0.04158653 
-0.020637792 0.9964777 0.08127959 
-0.005351289 0.9707569 0.2400051 
0.1094025 0.943679 0.3122518 
0.40608543 0.9021097 0.14592105 
0.53996223 0.78953326 -0.2916815 
0.28627786 0.9477513 -0.14075711 
0.22026423 0.9736461 -0.059136108 
0.096189186 0.99148846 0.087740384 
-0.053363934 0.99380785 0.09745912 
-0.14856826 0.9877862 0.046968218 
-0.15260199 0.9878144 0.030583914 
-0.22331962 0.973875 0.04118323 
-0.3717963 0.9165324 0.14743146 
-0.0005875174 -0.95843035 0.28532597 
-0.09048558 -0.9851057 0.14621578 
-0.19339988 -0.98061454 0.031491704 
-0.12582746 -0.9558189 -0.2656649 
-0.32303426 -0.9435208 0.07360414 
-0.40463376 -0.107808255 0.9081018 
-0.307417 0.90794504 0.2848347 
-0.07825174 0.99574375 0.048693188 
-0.009691915 0.99957407 0.027527694 
-0.16619581 0.9844356 0.057145417 
-0.25597984 0.96621305 0.030112455 
-0.26965424 0.96250933 -0.02937008 
-0.1477604 0.9869405 -0.064152196 
0.009936571 0.996088 -0.0878055 
0.020069906 0.99587315 -0.088509224 
-0.021275213 0.99596393 -0.087197006 
0.044267356 0.9956641 -0.08181369 
0.067928106 0.99768955 0.0011327935 
0.033813808 0.995104 0.0928697 
-0.04279486 0.9732621 0.225676 
-0.08703958 0.8827499 0.46171057 
0.11948915 0.6262888 0.7703796 
0.74987155 0.19483426 0.63224393 
0.98328066 0.14897256 -0.10472065 
0.6345617 0.7719493 -0.037760682 
0.4707551 0.88223994 -0.0065216734 
0.3500255 0.92400765 0.15392236 
0.15142213 0.974048 0.16823162 
-0.05424462 0.9902799 0.12807502 
-0.12772414 0.9880354 0.0864453 
-0.10330298 0.99029106 0.09301751 
0.006590072 0.9834446 0.1810898 
0.05655281 -0.98547673 0.1601168 
-0.03679223 -0.9929769 0.11244223 
-0.18574865 -0.98248357 0.014954273 
-0.05876033 -0.9865015 -0.15284637 
-0.2660899 -0.9639378 0.0044873566 
-0.82480705 0.12928064 0.55043614 
-0.35787517 0.8996648 0.25005758 
-0.10596995 0.9885347 0.10756168 
-0.10331069 0.9931094 0.055323526 
-0.27348006 0.96185625 0.006426957 
-0.37761202 0.9246511 -0.049289763 
-0.3777657 0.9223967 -0.08048365 
-0.3292953 0.94140047 -0.07300556 
-0.25675508 0.9599325 -0.112279326 
-0.2548379 0.96256596 -0.09232795 
-0.21190314 0.9759623 -0.050937265 
-0.16202866 0.98319817 -0.08407269 
-0.07057638 0.99511486 -0.0690323 
-0.050579887 0.9955783 0.07915589 
-0.17646478 0.9321545 0.3161461 
-0.28909847 0.64024633 0.71169287 
-0.21081392 -0.22143441 0.9521157 
0.20002072 -0.8469262 0.49265376 
0.5684443 -0.8071972 -0.15907177 
0.7894912 0.11385296 -0.60310954 
0.55680215 0.81361204 -0.16735205 
0.3572736 0.92395335 0.13662323 
0.1877504 0.9604979 0.20541076 
0.028295124 0.98323596 0.18012899 
-0.06528424 0.9891558 0.13156281 
-0.078947924 0.98917747 0.12367438 
-0.0062625506 0.98474 0.17391925 
-0.16478826 -0.96357703 0.21062808 
-0.048375472 -0.9918912 0.11752369 
-0.08060837 -0.9957387 0.044797048 
-0.024686057 -0.99969524 -0.00033133593 
-0.25239447 -0.90210783 0.34999773 
-0.24752806 0.7347768 0.63153225 
-0.09846186 0.9588936 0.26613593 
-0.08424163 0.9872215 0.13526721 
-0.23956348 0.96885157 0.06273776 
-0.38588813 0.922159 -0.026705354 
-0.38482845 0.9112767 -0.14656752 
-0.42440808 0.8584135 -0.28810415 
-0.570276 0.74414897 -0.3478903 
-0.61670905 0.7128253 -0.3339913 
-0.5931144 0.77006066 -0.2349933 
-0.4830756 0.86498994 -0.13575931 
-0.40829816 0.90207255 -0.13984881 
-0.2738387 0.95631206 -0.102369964 
-0.20994034 0.97581667 0.060885455 
-0.3773203 0.8466702 0.3752052 
-0.5410223 0.13025653 0.83085996 
-0.39613733 -0.76167923 0.51275736 
-0.13494012 -0.97069854 0.1988353 
0.05457738 -0.9932615 -0.10223948 
0.24280365 -0.7972339 -0.55268866 
0.2013139 0.96863836 -0.14564523 
0.10363886 0.99043614 0.091078326 
0.001143772 0.98417497 0.17719592 
-0.074221306 0.98217624 0.17268828 
-0.111838244 0.98603964 0.12336197 
-0.083808884 0.9897377 0.11573899 
0.076775 0.96703 0.24281386 
-0.082264416 -0.89053214 0.44742036 
0.09364607 -0.9645649 0.24666779 
0.12297633 -0.98341686 0.13329726 
0.25657764 -0.9644967 0.06256307 
0.086070314 -0.78018856 0.61959475 
0.16115324 0.86022 0.48378843 
0.0460565 0.9898248 0.13463224 
-0.044963162 0.9985488 0.029641358 
-0.24352695 0.9675503 -0.06738879 
-0.41103345 0.89663607 -0.16460694 
-0.4287539 0.8438005 -0.32275546 
-0.6203984 0.5298025 -0.5782865 
-0.7309073 -0.026219679 -0.681973 
-0.67879206 -0.23594815 -0.6953919 
-0.83389443 0.13554227 -0.53502184 
-0.7470889 0.53805876 -0.39032152 
-0.5950829 0.7301306 -0.33583575 
-0.42681745 0.8818562 -0.20039135 
-0.3476793 0.9353834 -0.06463185 
-0.5426525 0.8221176 0.17219432 
-0.7274234 0.28374508 0.6247751 
-0.5421121 -0.73476946 0.40771106 
-0.25319168 -0.94509494 0.20661438 
-0.062666364 -0.9979197 0.01514073 
-0.052045323 -0.97626233 -0.21024574 
-0.30713612 0.92272556 -0.23290586 
-0.12756091 0.99153394 -0.024264187 
-0.11066493 0.9895068 0.092896484 
-0.12593603 0.98586303 0.11051795 
-0.09629542 0.99443346 0.042771716 
0.025259115 0.99940985 0.023282142 
0.3766006 0.8935784 0.24431483 
0.53881466 -0.51905835 0.66351885 
0.47406086 -0.82250553 0.31424686 
0.43086025 -0.8945002 0.119284816 
0.80704993 -0.33526653 0.48607296 
0.54438865 0.7769495 0.3162126 
0.14415234 0.9870666 0.07013993 
0.032394435 0.99042886 -0.13416885 
0.011691793 0.97355133 -0.22816946 
-0.07935442 0.95486224 -0.28625375 
-0.25433546 0.91251427 -0.3203612 
-0.38347304 0.7813506 -0.49238163 
-0.6809677 0.18408921 -0.7087978 
-0.60749817 -0.50386655 -0.6140558 
-0.5202589 -0.6864932 -0.507994 
-0.79229385 -0.27435705 -0.544976 
-0.7353134 0.41436455 -0.53629875 
-0.54066944 0.7515974 -0.3778595 
-0.41491133 0.89036137 -0.1873642 
-0.35554007 0.9311602 -0.080821715 
-0.5935323 0.8039651 -0.036873035 
-0.9190064 0.38888913 0.0647506 
-0.6827572 -0.6976606 0.21705398 
-0.30091104 -0.9455779 0.12383419 
-0.12491766 -0.9921446 0.00669781 
-0.1819619 -0.97002816 -0.16104421 
-0.55291516 0.8169743 -0.1638225 
-0.23185651 0.9668178 -0.10726577 
-0.08812588 0.9942549 -0.06075509 
-0.06429551 0.997694 -0.021741072 
0.0072226496 0.99805194 -0.061969314 
0.11847049 0.9919333 -0.045092348 
0.3004971 0.94065136 0.15772305 
0.5380082 0.71925753 0.43956316 
0.74586904 0.6396206 0.18591666 
0.8631163 0.50469834 0.017599598 
0.24948116 0.92113996 -0.29876474 
0.19477761 0.9712102 -0.13715851 
0.10916443 0.9907208 -0.08096534 
0.077185474 0.9920517 -0.099376634 
0.04420057 0.98579973 -0.16200384 
-0.042060312 0.9794063 -0.19746973 
-0.22484598 0.9434886 -0.24346162 
-0.41877624 0.832682 -0.36230835 
-0.61001295 0.4395121 -0.659328 
-0.5331593 -0.26961625 -0.8019029 
-0.6078719 -0.44877428 -0.6550523 
-0.8568736 0.090318635 -0.50755316 
-0.6512901 0.68066466 -0.33543545 
-0.47251412 0.8528072 -0.22237414 
-0.38576704 0.9133459 -0.13031921 
-0.3275977 0.9425473 -0.06545428 
-0.5708103 0.81326157 -0.113054104 
-0.9163782 0.35140818 -0.19173805 
-0.7152291 -0.67116755 -0.19488831 
-0.2874897 -0.927913 -0.23733343 
-0.1437763 -0.94796264 -0.28406906 
-0.27285564 -0.90484494 -0.32681128 
-0.54267186 0.7251725 -0.42383024 
-0.2760645 0.9351304 -0.22208005 
-0.15605208 0.97608286 -0.1513611 
-0.071476735 0.9894022 -0.1263909 
0.047860503 0.9890867 -0.13934521 
0.0625965 0.9924647 -0.1053348 
0.05415932 0.99811834 0.028751232 
0.14623912 0.97705996 0.15481625 
0.26488027 0.96294534 0.050741136 
0.32527915 0.9452406 -0.02671469 
-0.1591437 0.9536172 -0.25551426 
-0.08094678 0.9810294 -0.1761503 
-0.037643258 0.9885747 -0.14595577 
0.061228495 0.9975435 -0.034030687 
0.05201566 0.9981199 -0.032422528 
-0.04601546 0.9970932 -0.06072661 
-0.2134496 0.97247493 -0.09344461 
-0.37258005 0.9234606 -0.091676965 
-0.4218531 0.8607407 -0.2848956 
-0.3888592 0.727563 -0.5651908 
-0.53334755 0.65667284 -0.5332179 
-0.59438276 0.7705869 -0.23001094 
-0.40571997 0.9135538 -0.02847524 
-0.32904762 0.9423139 0.061418463 
-0.31325012 0.9460767 0.08254294 
-0.21638022 0.97584033 0.030253021 
-0.2547108 0.9618578 -0.09976035 
-0.4725353 0.84799474 -0.24003218 
-0.64699686 0.25131047 -0.7198876 
-0.2744975 -0.4336351 -0.85826087 
-0.027714925 -0.22786936 -0.9732973 
-0.13812381 0.4227939 -0.89563787 
-0.21089399 0.8791197 -0.4274018 
-0.21033932 0.96220875 -0.17295006 
-0.18748176 0.97808677 -0.090536945 
-0.061376426 0.994174 -0.08860646 
0.005583651 0.9946171 -0.103468485 
-0.05849528 0.9939781 -0.092660494 
-0.07066605 0.99681634 -0.03692744 
0.086468264 0.99616235 0.013562875 
0.18492779 0.9823756 -0.027202144 
0.215585 0.9727223 -0.08564162 
-0.15836741 0.96746343 -0.19731787 
-0.10404888 0.9853977 -0.13477826 
-0.058948927 0.99448013 -0.08680082 
0.07403682 0.9960325 0.049375962 
0.094692074 0.9934354 0.06418505 
0.010681153 0.9998186 0.015771067 
-0.111143924 0.9937578 -0.009622437 
-0.21438293 0.9765923 0.01753738 
-0.2618642 0.9556507 -0.13475506 
-0.19101585 0.94658434 -0.25979048 
-0.2693225 0.9362606 -0.22556937 
-0.29853103 0.9501305 -0.09017358 
-0.19137496 0.9814911 0.0071361223 
-0.16003609 0.98636544 0.038362928 
-0.16586284 0.98193973 0.0910168 
-0.09132341 0.992153 0.085396126 
-0.047592163 0.99886084 0.0034864373 
-0.08516869 0.994192 -0.06579304 
-0.11773617 0.949625 -0.29043177 
-0.076182574 0.8222547 -0.56399786 
0.008526031 0.85408974 -0.52005583 
-0.0540029 0.94944507 -0.3092537 
-0.095147066 0.9874022 -0.12642756 
-0.104964316 0.9944638 -0.0049358886 
-0.05500076 0.99784094 -0.03589714 
0.06319243 0.9946005 -0.082320794 
0.08222609 0.9923354 -0.09224611 
0.010354295 0.9933695 -0.11449819 
-0.026125088 0.99448997 -0.10152473 
0.085298486 0.9944673 -0.061311077 
0.12365928 0.99088186 -0.053493157 
0.15252177 0.98674977 -0.05533635 
-0.031003024 0.9845881 -0.17211956 
-0.012982804 0.99306536 -0.1168448 
0.021649666 0.9997573 0.0040788683 
0.084331386 0.9894624 0.11769617 
0.12442046 0.98930705 0.07609924 
0.1786945 0.98249686 0.052615847 
0.09688376 0.9848602 0.14374958 
-0.010750375 0.9928623 0.11878081 
-0.101309285 0.9943892 -0.030442547 
-0.12538208 0.9847347 -0.12073493 
-0.18325277 0.9808376 -0.06615163 
-0.14540881 0.98929304 -0.012471742 
-0.07529822 0.9968356 0.025476284 
-0.047645845 0.9970966 -0.059400287 
-0.024388049 0.99964887 0.010358565 
-0.02366123 0.9936423 0.11006978 
0.015448393 0.9974075 0.07028366 
0.06492333 0.99783486 0.010514096 
0.09430034 0.9921571 -0.08204832 
0.066224955 0.9734514 -0.21910416 
0.022587406 0.98453575 -0.17372173 
-0.05504839 0.9978026 -0.036872618 
-0.08794095 0.99397314 0.06545183 
-0.07001324 0.9933263 0.09165758 
0.0054240334 0.99934846 -0.035682965 
0.115155414 0.9926838 -0.036305252 
0.12481592 0.9909708 0.048968267 
0.12754591 0.99160653 -0.02118205 
0.096742675 0.988702 -0.11449547 
0.10864268 0.9905483 -0.08373098 
0.12517901 0.99180174 -0.025684437 
0.19532834 0.9797336 0.044372763 
0.19713564 0.9762167 -0.09021414 
0.13421308 0.98914 -0.059908405 
0.13106042 0.9900379 0.051461227 
0.088808 0.9899935 0.10966282 
0.13909905 0.98311627 0.11888564 
0.15423518 0.9775134 0.14380233 
0.038459577 0.9920231 0.120045625 
-0.06554215 0.9884935 -0.13632655 
-0.03560745 0.9684532 -0.24663809 
-0.053010605 0.9703341 -0.23588485 
-0.12715836 0.9773801 -0.16899411 
-0.061211474 0.9930127 -0.100890204 
0.05260046 0.9985668 -0.009881459 
0.10847688 0.9915513 -0.0711265 
0.15010385 0.98864406 -0.0072001903 
0.07580519 0.9900149 0.11884484 
0.0678012 0.98422223 0.16343072 
0.14916822 0.9826054 0.11061426 
0.18689568 0.9820571 0.025178699 