# OOMMF OVF 2.0
# Segment count: 1
# Begin: Segment
# Begin: Header
# Title: m
# meshtype: rectangular
# meshunit: m
# xmin: 0
# ymin: 0
# zmin: 0
# xmax: 1.6e-07
# ymax: 1.6e-07
# zmax: 5e-09
# valuedim: 3
# valuelabels: m_x m_y m_z
# valueunits: 1 1 1
# Desc: Total simulation time:  1.8317435677166003e-11  s
# xbase: 2.5e-09
# ybase: 2.5e-09
# zbase: 2.5e-09
# xnodes: 32
# ynodes: 32
# znodes: 1
# xstepsize: 5e-09
# ystepsize: 5e-09
# zstepsize: 5e-09
# End: Header
# Begin: Data Text
-0.119186796 -0.9909401 -0.061905682 
-0.013018527 -0.98522586 -0.17076467 
0.16208258 -0.97121227 -0.17457396 
0.27462116 -0.9405228 -0.20000051 
0.41936964 -0.900082 -0.11824413 
0.83747536 -0.52566814 -0.14935921 
0.87432384 0.26558003 -0.40623283 
0.5344567 0.75373304 -0.3824169 
0.2943745 0.8811535 -0.37001657 
0.22692132 0.60379136 -0.7641614 
0.48571485 -0.77220905 -0.40960267 
-0.07814994 -0.90318656 -0.4220743 
-0.6252204 -0.38860932 -0.6768178 
-0.20386465 0.75643265 -0.6214893 
-0.27045974 0.8108777 -0.5189691 
-0.2463169 0.56212103 -0.789524 
0.09896665 0.83947223 -0.53431445 
0.26334947 0.9442777 -0.19745044 
0.2876902 0.92134964 -0.26143706 
0.22874352 0.7914998 -0.56674904 
0.48801497 0.4199513 -0.7651683 
0.6984458 -0.40611285 -0.5892757 
0.40584618 -0.8645602 -0.29635197 
0.015300852 -0.9884521 -0.15075941 
-0.25675508 -0.9571766 -0.13375208 
-0.53910464 -0.84174097 0.028955767 
-0.867683 -0.15397689 0.47267032 
-0.45510498 0.7074777 0.54069847 
-0.11862366 0.94234717 0.3129062 
-0.02938517 0.993314 0.11164127 
0.08565427 0.98782897 0.12983552 
0.14236975 0.9439643 0.29776227 
0.037373967 -0.9986027 -0.037362684 
0.17896292 -0.96436757 -0.19485258 
0.30864948 -0.9108779 -0.2739289 
0.3233609 -0.8741831 -0.36227295 
0.4500967 -0.8247956 -0.3422356 
0.89206713 -0.096586086 -0.44146064 
0.67083925 0.6261192 -0.39742854 
0.288744 0.93172365 -0.22026777 
0.048104323 0.9745997 -0.21872672 
-0.19671273 0.82814986 -0.52485424 
0.014525646 -0.33877453 -0.9407555 
-0.2761499 -0.69384557 -0.6650712 
-0.51027954 -0.31874132 -0.7987608 
-0.2957392 0.68007016 -0.67085236 
-0.28767177 0.8069546 -0.51581883 
-0.099273376 0.72235304 -0.6843617 
0.06675571 0.9427547 -0.32673723 
0.09526434 0.9954201 0.007969883 
0.115551256 0.9915635 -0.058735546 
0.27512228 0.8462901 -0.45618057 
0.56984514 0.47665867 -0.6693826 
0.9690949 0.0029299238 -0.24667121 
0.8718681 -0.48252207 0.08377723 
0.23977637 -0.9435333 0.22858761 
-0.21427935 -0.93767315 0.27359354 
-0.5481972 -0.6726688 0.49698746 
-0.5617409 0.033996463 0.82661456 
-0.14704661 0.7820664 0.6055985 
0.08810996 0.92840767 0.36096543 
0.090852305 0.961347 0.25991902 
-0.029705726 0.9667817 0.25387192 
-0.14267956 0.9354873 0.32327417 
0.57214266 -0.81561863 -0.086134106 
0.7125334 -0.66246593 -0.2311603 
0.59786963 -0.68190455 -0.42137647 
0.49439338 -0.6411855 -0.5869041 
0.57074696 -0.50500166 -0.64747304 
0.67981136 0.48543057 -0.5497398 
0.37393272 0.8541344 -0.36142597 
0.14990091 0.9620176 -0.22814903 
-0.06141813 0.98619366 -0.15378505 
-0.3316461 0.9383636 -0.097389534 
-0.6609466 0.5569458 -0.50295234 
-0.77945876 -0.21589273 -0.5880769 
-0.7176598 -0.10248561 -0.6888115 
-0.4400734 0.6187057 -0.6507986 
-0.29763788 0.74690765 -0.594593 
0.052969966 0.77958095 -0.6240574 
0.10062652 0.9531226 -0.28536218 
-0.059573583 0.99770486 0.032186072 
-0.1052479 0.9911343 0.0810918 
0.076280735 0.97798145 -0.19425122 
0.34500206 0.86761546 -0.35807416 
0.6448513 0.76083726 0.07275587 
0.74640876 0.49803877 0.4413971 
0.21985567 -0.5529584 0.80367947 
-0.4147138 -0.51265275 0.7517977 
-0.6759824 0.20790403 0.7069822 
-0.3534526 0.7676455 0.5345951 
0.0447204 0.93587524 0.3494821 
0.1799601 0.95848197 0.22119416 
0.22199172 0.9304751 0.29143757 
0.034800805 0.91629267 0.39899457 
-0.13017604 0.9151722 0.38146314 
0.738948 0.41926363 -0.5274221 
0.8754386 0.2468702 -0.41552675 
0.7625504 -0.031422567 -0.64616525 
0.67265713 0.17635998 -0.7186304 
0.53480196 0.68374664 -0.4964651 
0.15041184 0.92733246 -0.34268177 
0.14400803 0.9738158 -0.17591068 
0.10394296 0.9891687 -0.103640474 
0.011602192 0.9998518 0.012722071 
-0.09872275 0.98883015 0.111663535 
-0.38117674 0.9180151 0.10932817 
-0.5807336 0.78276706 0.22366136 
-0.6604878 0.7305112 -0.17352079 
-0.36741257 0.8812869 -0.29722276 
-0.2896381 0.8969062 -0.33416942 
-0.09827472 0.9046284 -0.4147163 
0.028358482 0.96524936 -0.2597877 
-0.0073005958 0.9975012 -0.07027159 
-0.04107725 0.9989676 -0.019404389 
0.08338753 0.9860633 -0.14396434 
0.16788527 0.96423364 -0.20510472 
0.16518573 0.98588383 -0.027327145 
0.13727467 0.9904448 -0.0132228425 
-0.003887967 0.9911318 0.1328263 
-0.3161873 0.9480102 0.036087774 
-0.44971216 0.89315 0.0064973626 
-0.23998298 0.97071 -0.011426223 
0.027939944 0.9991209 0.031254496 
0.070363894 0.99678284 0.038380597 
0.12504551 0.9659399 0.22654758 
0.09796803 0.8733415 0.47715524 
0.0611708 0.87553215 0.47927198 
0.3755483 0.9247591 -0.06151518 
0.4550164 0.8755556 -0.16236587 
0.43085033 0.8361477 -0.33944836 
0.4258065 0.8465164 -0.31952915 
0.1891063 0.9718997 -0.14017755 
0.010219581 0.99944407 -0.031737972 
0.075079285 0.9963507 0.040600553 
-0.00893615 0.99965674 0.024628833 
-0.052402187 0.991116 0.12224271 
-0.0336129 0.9785908 0.20305268 
-0.11732388 0.95539707 0.27101952 
-0.10269569 0.92617434 0.3628427 
-0.22453384 0.96678215 0.12213454 
-0.16885087 0.98563635 0.0032420943 
-0.16799627 0.98161906 -0.0905621 
-0.09695351 0.9630804 -0.25115007 
0.005289276 0.97159475 -0.23659182 
0.022081254 0.9983996 -0.052063238 
0.012672263 0.9988039 0.047225464 
0.16531043 0.9862087 0.008057719 
0.1753382 0.984419 -0.013264833 
0.06858935 0.99764127 0.0027387524 
-0.04292449 0.9925871 -0.11370379 
-0.09407174 0.9916741 -0.08793708 
-0.12273106 0.97617 -0.17896755 
-0.0776806 0.98571455 -0.1494412 
-0.036335215 0.9950254 -0.092759594 
-0.022968095 0.9975623 -0.065893486 
-0.05873137 0.9982003 -0.012121566 
0.0050417874 0.96892154 0.24731709 
0.10964864 0.7875189 0.6064578 
0.18192428 0.7466042 0.63991076 
0.26219282 0.9649778 -0.008540559 
0.19863476 0.965677 -0.16736826 
0.14870435 0.9787816 -0.14097445 
0.27395388 0.9606221 -0.046417143 
0.12687215 0.9905963 -0.051210977 
-0.058337767 0.9925476 -0.10698663 
-0.06930297 0.9883146 -0.13576245 
-0.26037633 0.96226066 -0.079112485 
-0.26934585 0.9512349 0.15034953 
-0.025769467 0.9827366 0.18320687 
0.07162078 0.9929943 0.093983166 
0.2530571 0.9602097 0.11815081 
0.23983914 0.96899766 0.059337568 
0.14298208 0.9778427 0.15290457 
-0.0014277669 0.9970314 0.07698365 
-0.03122596 0.9875966 -0.1538767 
0.015912274 0.97249866 -0.23236437 
-0.0220387 0.99758834 -0.06581577 
-0.097869635 0.99469763 0.031595696 
0.019661402 0.99976414 -0.00922266 
0.020808041 0.9901384 -0.13853869 
-0.033940073 0.9896479 -0.13944565 
-0.09566016 0.98068154 -0.17062533 
-0.14204 0.97988087 -0.1402079 
-0.005994329 0.98402107 -0.17795119 
0.07974201 0.99530154 -0.054920394 
-0.033673257 0.9993237 -0.014772806 
-0.12247619 0.98869705 -0.086475044 
-0.15321471 0.98797196 0.02089787 
-0.09694864 0.92920166 0.35663038 
0.087991565 0.51549256 0.85236436 
0.31477708 -0.029745897 0.9486994 
0.28461114 0.9446889 -0.16297027 
0.23152943 0.95684993 -0.17559145 
0.26871374 0.95826614 -0.09756559 
0.2727554 0.96132135 -0.038286973 
0.069809675 0.9964533 -0.0469846 
-0.20699263 0.9685827 -0.13784659 
-0.27861795 0.93816334 -0.20547913 
-0.400435 0.9153226 -0.042854402 
-0.351964 0.8953818 0.27278724 
-0.16087851 0.95283335 0.2573459 
-0.06491175 0.99536556 0.07095146 
0.17108312 0.98207396 -0.0791291 
0.2982004 0.94636315 -0.12439212 
0.16866796 0.9852232 0.029773695 
-0.042555522 0.9982591 -0.040840074 
-0.14262721 0.96519214 -0.21922968 
-0.1012562 0.9556987 -0.27638215 
-0.06610735 0.9926118 -0.10174327 
-0.08521048 0.9960316 -0.025695996 
-0.10951847 0.9926862 -0.0507916 
-0.20662935 0.95803255 -0.19869106 
-0.22017783 0.9571875 -0.18791987 
-0.1757345 0.96575046 -0.19090192 
-0.1579421 0.9733164 -0.16646177 
0.03511854 0.9870046 -0.15680777 
0.034667782 0.996764 -0.072524175 
-0.08464872 0.99469525 -0.058445685 
-0.13339843 0.983937 -0.118628785 
-0.15091039 0.9876028 -0.04320747 
-0.061131872 0.9654295 0.2533948 
0.12309186 0.53694963 0.8345858 
0.25149715 -0.7173571 0.64972925 
0.39881492 0.8967026 -0.19201873 
0.33580455 0.9379347 -0.0866825 
0.25667626 0.96422905 0.06617894 
0.16827315 0.9847085 0.045092497 
0.06565294 0.99765515 -0.019338394 
-0.12601732 0.99172586 -0.024484845 
-0.19038314 0.98049825 -0.04876016 
-0.17171586 0.98399574 0.0476047 
-0.06444079 0.97324306 0.22055747 
-0.09739153 0.99125314 0.08906299 
-0.18680534 0.97741425 -0.09881875 
-0.016795477 0.9634975 -0.26719013 
0.26538214 0.94778025 -0.17687535 
-0.000788184 0.97865874 0.20549096 
-0.31436956 0.94924235 0.010531154 
-0.32094443 0.93819857 -0.12953036 
-0.28538293 0.93507737 -0.21020706 
-0.21113223 0.96789974 -0.13635768 
-0.12899303 0.9860501 -0.10519455 
-0.2381039 0.9679347 -0.08005555 
-0.56600124 0.8223046 -0.05880382 
-0.5943394 0.8001525 0.080725886 
-0.57696515 0.8166971 0.010815724 
-0.37874424 0.9244026 -0.04508472 
-0.07998875 0.99206567 -0.096992254 
-0.043089494 0.9903343 -0.13183892 
-0.030305972 0.9966761 -0.075620845 
-0.06809356 0.99476683 -0.07617355 
-0.14318323 0.98821175 -0.054187443 
-0.034770753 0.9972369 0.06564733 
0.14030603 0.92367995 0.35655233 
0.44064745 -0.70987695 0.5494585 
0.50196975 0.8638171 -0.04296989 
0.40862814 0.9124445 0.021637665 
0.24344999 0.9640161 0.10679538 
0.1482094 0.98890287 0.010252427 
0.15095253 0.9830368 -0.104172945 
0.090837054 0.9943471 -0.054978114 
0.047565274 0.98943645 -0.1369421 
0.09991643 0.9769505 -0.18863867 
0.11472956 0.966068 -0.23140822 
-0.185912 0.84606946 -0.49960315 
-0.43107024 0.65324575 -0.6224536 
-0.2832458 0.7809474 -0.55668044 
0.5396825 0.82665086 -0.15934655 
-0.0308193 0.47206888 0.8810229 
-0.5033969 0.7115434 0.49020156 
-0.25385278 0.9202145 0.29793334 
-0.26265064 0.940781 0.21434939 
-0.31678915 0.9457943 0.07153976 
-0.26302612 0.9615485 -0.0790052 
-0.46743467 0.88402146 -0.003310636 
-0.92021185 0.058115058 0.38708237 
-0.89619946 -0.18496273 0.403256 
-0.99089813 -0.010744992 0.13418417 
-0.7518521 0.64561164 0.13380656 
-0.28965276 0.94941604 0.1212871 
-0.1251335 0.9904946 0.0571149 
-0.060724974 0.9950804 0.07827928 
-0.10189054 0.99394476 0.041135255 
-0.2193438 0.9728592 0.07371098 
-0.250277 0.95653903 0.1496481 
-0.4073686 0.8528494 0.32664797 
0.36623567 -0.8731522 0.32167795 
0.77626413 0.60033494 -0.19238544 
0.65249443 0.72698975 -0.21386194 
0.37010807 0.924093 -0.095247716 
0.18772984 0.98131686 -0.04212938 
0.14893717 0.9865371 -0.06754516 
0.16401444 0.9852877 -0.048034694 
0.22717509 0.94193155 -0.24729808 
0.32771164 0.85360205 -0.4049304 
0.14340703 0.8246832 -0.54711246 
-0.5302867 0.41904134 -0.73702127 
-0.68239844 -0.24310979 -0.68936926 
-0.6896478 -0.6625568 -0.29224035 
-0.290664 -0.9347177 0.20449299 
-0.49742723 -0.657039 0.56645036 
-0.90581745 0.047665097 0.42097855 
-0.35945752 0.8898046 0.28113735 
-0.15566283 0.96498185 0.21113807 
-0.21289432 0.9686471 0.12805784 
-0.3468882 0.93624926 -0.05572988 
-0.6673259 0.744653 -0.012965608 
-0.8948072 -0.28538185 0.34333253 
-0.6709466 -0.6973776 0.2519824 
-0.8261737 -0.5633098 0.010917229 
-0.8901689 0.42217287 0.17137499 
-0.40188903 0.9001038 0.16822134 
-0.0839141 0.98553157 0.14726168 
0.037358876 0.9796649 0.19713189 
0.009331753 0.96438706 0.26433071 
-0.010887618 0.9405813 0.33939394 
0.2438223 0.9233994 0.29645315 
0.7063339 0.6911217 0.153112 
0.21687587 -0.9553446 0.20070285 
0.5777648 -0.7120343 -0.3989925 
0.7447753 -0.17457134 -0.6440766 
0.69235724 0.61464405 -0.37796062 
0.4404008 0.8804765 -0.1755234 
0.27415934 0.95307237 -0.12841247 
0.16471674 0.98224604 -0.08978434 
0.20682655 0.9579092 -0.19907996 
0.5059783 0.8141123 -0.28496882 
0.78499633 0.45480436 -0.42063498 
0.44535667 -0.75457865 -0.4819425 
-0.035529017 -0.8385782 -0.5436215 
-0.21915945 -0.9624333 -0.16028577 
-0.12879737 -0.98974484 0.061777513 
-0.27813178 -0.9543133 0.10922006 
-0.50487226 -0.86312133 -0.011205272 
-0.49317884 0.82499933 0.2759544 
-0.2934182 0.9421924 0.16179997 
-0.31487417 0.9469801 0.06389825 
-0.5390983 0.84083337 -0.048707 
-0.87862015 0.43281782 0.20173086 
-0.8160088 -0.30046263 0.4938136 
-0.5418231 -0.7127036 0.4455125 
-0.6155835 -0.69047534 0.37986943 
-0.68940705 0.39642188 0.6062736 
-0.43543497 0.8392314 0.32571006 
-0.100192256 0.9844012 0.14462292 
0.06692439 0.98022264 0.1862384 
0.07648016 0.9409184 0.32988384 
-0.05993768 0.8706267 0.48827925 
-0.31385338 0.7695269 0.5561695 
-0.4506204 0.22469036 0.86397666 
-0.53426486 -0.80270696 0.26499563 
0.22557175 -0.8991566 -0.37501344 
0.39326075 -0.7717179 -0.49979755 
0.670016 -0.29411063 -0.6815992 
0.72937894 0.46607137 -0.5007832 
0.3812269 0.9148962 -0.13278261 
0.05789193 0.996738 0.056231003 
0.13822049 0.99034435 0.010640629 
0.5128053 0.8585049 0.00053075794 
0.9030163 0.40593654 0.14063121 
0.6166079 -0.7830101 0.08179095 
0.2818385 -0.90822756 -0.30933797 
0.07501153 -0.95481676 -0.28757316 
-0.09913053 -0.948785 -0.2999673 
-0.24269964 -0.9629982 -0.11718044 
-0.3880921 -0.90467125 -0.17593916 
-0.416719 0.90901977 0.0053302045 
-0.31557128 0.9465961 0.066111095 
-0.34854496 0.9211615 0.17314167 
-0.6753513 0.7043243 0.21869573 
-0.8637648 0.11037787 0.49165764 
-0.6479843 -0.5903715 0.48122534 
-0.5190604 -0.6817581 0.5155407 
-0.6112773 -0.42667386 0.6665506 
-0.525955 0.79879165 0.29206753 
-0.2670185 0.9465453 0.1809785 
8.1709695e-05 0.99630684 0.08586507 
0.17933217 0.9770243 0.11516708 
0.11293952 0.9514377 0.28637576 
-0.1303299 0.87987643 0.4569811 
-0.6896122 0.6022924 0.40209326 
-0.9756258 -0.03142454 0.21717905 
-0.78641593 -0.6170115 -0.029098948 
0.029954785 -0.9816167 -0.18849774 
0.100581795 -0.96264267 -0.2514008 
0.36600873 -0.8392271 -0.40216357 
0.77592784 0.19424668 -0.6001703 
0.46322623 0.8822021 -0.08450466 
0.12576666 0.9630617 0.23810707 
0.14555487 0.9646444 0.21971598 
0.3453498 0.92435133 0.16219799 
0.7173001 0.693133 0.071043655 
0.85819805 0.024840664 -0.51271737 
0.39424744 -0.5607869 -0.7280708 
0.013229126 -0.92349374 -0.38338542 
-0.25783855 -0.9335419 -0.24903579 
-0.12562834 -0.9901987 -0.06102599 
-0.30751356 -0.94943357 0.06333596 
-0.5876202 0.75394815 0.29370856 
-0.3964027 0.8692483 0.29541913 
-0.44843733 0.86637133 0.21978337 
-0.64361787 0.75448513 0.12848473 
-0.950644 0.15194301 0.27053553 
-0.8570797 -0.35901985 0.36948496 
-0.76913077 -0.37841982 0.51501113 
-0.7977264 0.073471166 0.59852695 
-0.63261265 0.7380757 0.2346177 
-0.18462949 0.963636 0.19317773 
0.21679515 0.96738625 0.1310101 
0.32936844 0.93741506 0.113002844 
0.11688661 0.93535715 0.33383325 
-0.26597214 0.8811241 0.39099765 
-0.82339525 0.5232662 0.2195739 
-0.9858753 -0.14900586 0.07646767 
-0.77029574 -0.63582957 -0.04863429 
-0.17914629 -0.97299165 -0.14558166 
-0.10695022 -0.98084605 -0.16279683 
0.070879504 -0.9585897 -0.27582994 
0.51537734 0.8529524 -0.082816 
0.31609884 0.9487092 0.0056953006 
0.23969808 0.9626769 0.12569018 
0.115213305 0.98992383 0.082320794 
0.13520762 0.9820221 0.1317252 
0.36797333 0.9296578 -0.018225562 
0.46398988 0.7131742 -0.5254484 
0.3107218 -0.51606804 -0.7982016 
-0.02353915 -0.7910971 -0.6112376 
-0.017858788 -0.9590014 -0.2828381 
0.5506081 -0.83468103 -0.0117599955 
0.75797397 0.4078177 0.5090778 
-0.059508972 0.9266642 0.37114996 
-0.2264861 0.9582226 0.17468083 
-0.3263325 0.9426863 0.06963899 
-0.34695202 0.9376251 0.021986417 
-0.71874315 0.68219465 0.13423437 
-0.967075 0.2126131 0.13986361 
-0.96395636 -0.07399832 0.25556305 
-0.76233685 0.51514184 0.39175433 
-0.4989571 0.8531592 0.15218809 
-0.008099322 0.9750215 0.22196288 
0.314929 0.93560225 0.15958752 
0.35487488 0.91667 0.18379314 
0.12336122 0.9334204 0.33690998 
-0.14467421 0.94062614 0.30706993 
-0.80621374 0.53414124 0.25438666 
-0.88176054 -0.39311752 0.2606857 
-0.60718656 -0.7703766 0.19453642 
-0.27209038 -0.9555163 -0.113822915 
-0.28378707 -0.9537643 -0.09898771 
-0.44617346 -0.8914528 -0.07900187 
-0.100296274 0.9628377 0.25076753 
0.0102088135 0.9980785 0.06111473 
0.04445251 0.99881834 -0.019648997 
-0.0052954718 0.9992204 -0.03912602 
0.09862765 0.9950705 0.010360412 
0.2130439 0.96176666 -0.17209707 
0.17785878 0.8901737 -0.41947252 
0.27522287 0.69214743 -0.66722137 
0.19158643 0.47850052 -0.8569317 
0.27819344 0.55631846 -0.7830187 
0.2237874 0.7932354 -0.566301 
0.13347061 0.98784626 -0.079658344 
0.102657296 0.99296093 -0.059076518 
0.0022635038 0.9956212 -0.0934521 
-0.1538932 0.984249 -0.08701067 
-0.255774 0.96175903 -0.097975925 
-0.4227448 0.8977722 -0.12366091 
-0.5124394 0.80061555 -0.31051674 
-0.6508398 0.6649201 -0.36645442 
-0.48391247 0.8725957 -0.06637329 
-0.2087571 0.9752717 0.07256464 
0.06841947 0.96773785 0.24249205 
0.24107675 0.95308995 0.1830346 
0.189993 0.9625723 0.19328053 
0.017305957 0.9770037 0.2125192 
-0.22085528 0.97526 0.009538229 
-0.9187783 0.39261726 -0.04120716 
-0.83625585 -0.5260638 0.15470336 
-0.4916174 -0.8078664 0.32506043 
-0.3246321 -0.94178426 0.087502055 
-0.45612007 -0.8852382 0.09114798 
-0.74248195 -0.62476563 0.2416371 
-0.32652634 0.9387107 0.1104669 
-0.105120115 0.98776585 0.115189426 
-0.03865519 0.9981608 0.04670056 
-0.0011064253 0.9991381 -0.041496154 
0.11482953 0.99235237 -0.04528822 
0.15880147 0.9706607 -0.18055475 
-0.00054241123 0.9490259 -0.31519756 
-0.006247662 0.92642397 -0.3764303 
0.057510976 0.8423724 -0.5358182 
0.167385 0.93644536 -0.3083057 
0.261865 0.9479248 -0.18128806 
0.15786564 0.9848007 -0.0724296 
0.052711662 0.99548465 -0.07894178 
-0.060273066 0.9975209 -0.036322203 
-0.10552086 0.99393934 0.030822525 
-0.06544521 0.9957339 -0.06504582 
-0.13754284 0.9622371 -0.23490769 
-0.098552324 0.90405047 -0.41590908 
-0.25008774 0.8787164 -0.40658778 
-0.21020316 0.9405696 -0.26672778 
-0.08388092 0.99532825 -0.04780952 
-0.0077603715 0.9960986 0.08790635 
0.045229156 0.99857706 0.028252102 
-0.001951019 0.9921476 0.12505744 
-0.07481555 0.973543 0.21590905 
-0.24771355 0.9680516 0.038911004 
-0.9572532 -0.050260622 0.2848511 
-0.6279436 -0.73385155 0.2591309 
-0.35454565 -0.87014705 0.34225935 
-0.3545592 -0.87014395 0.3422535 
-0.62795246 -0.7338477 0.25912035 
-0.9572435 -0.050293382 0.2848781 
-0.24767782 0.968061 0.03890629 
-0.07490396 0.9735392 0.21589555 
-0.0019673733 0.9921457 0.12507226 
0.045297213 0.9985724 0.028307445 
-0.007755169 0.99609905 0.08790094 
-0.08404812 0.99531406 -0.047810555 
-0.21031317 0.9405951 -0.2665506 
-0.25002465 0.87874144 -0.4065723 
-0.09868211 0.9039791 -0.41603333 
-0.13753806 0.962203 -0.2350507 
-0.06556673 0.995711 -0.06527265 
-0.10566617 0.99392426 0.030811116 
-0.06020471 0.997526 -0.036295973 
0.053186957 0.99544746 -0.07909211 
0.15828478 0.98473823 -0.072364084 
0.26198503 0.9479238 -0.18112007 
0.16738895 0.9364905 -0.30816638 
0.057508968 0.8422902 -0.53594774 
-0.0064330143 0.92632914 -0.37666044 
-0.00044247048 0.9489131 -0.31553745 
0.15908495 0.9706012 -0.18062462 
0.114882655 0.9923508 -0.045188125 
-0.0011947363 0.9991412 -0.04141767 
-0.038681004 0.9981569 0.046763126 
-0.105098 0.9877659 0.11520824 
-0.3265805 0.93869585 0.11043262 
-0.7424674 -0.62477267 0.24166362 
-0.4561064 -0.8852424 0.09117538 
-0.3246334 -0.94178236 0.0875163 
-0.49161023 -0.80786985 0.32506254 
-0.83624864 -0.5260736 0.15470892 
-0.918783 0.3926068 -0.041205045 
-0.22090694 0.97524834 0.00953416 
0.017194906 0.9769937 0.21257436 
0.1900051 0.9625454 0.1934021 
0.24122126 0.95302534 0.1831806 
0.0686324 0.9677271 0.2424743 
-0.2087278 0.975294 0.07234919 
-0.48401722 0.87252575 -0.066530585 
-0.6508687 0.66485393 -0.36652315 
-0.5124244 0.80054164 -0.31073207 
-0.42265192 0.89780235 -0.12375884 
-0.25572214 0.96174306 -0.098268084 
-0.15399389 0.9842204 -0.08715669 
0.0023543527 0.99562216 -0.09344015 
0.10303604 0.99291945 -0.059114832 
0.13381146 0.98776865 -0.08004796 
0.22386527 0.79297954 -0.56662863 
0.2787066 0.55607855 -0.78300655 
0.19145697 0.47879148 -0.8567981 
0.2745161 0.6919811 -0.667685 
0.17787606 0.8900211 -0.41978893 
0.21316889 0.96174127 -0.17208356 
0.09857489 0.99507517 0.01041962 
-0.005382279 0.9992202 -0.03911623 
0.044430565 0.99881965 -0.019629998 
0.010254719 0.9980782 0.061112273 
-0.10027684 0.9628457 0.2507443 
-0.44616964 -0.8914561 -0.07898552 
-0.28379714 -0.9537622 -0.098979734 
-0.27211505 -0.95550936 -0.113821566 
-0.60717756 -0.77038735 0.19452198 
-0.8817579 -0.39311367 0.26070055 
-0.8061705 0.5342174 0.25436357 
-0.14472608 0.94063306 0.3070243 
0.12323331 0.93343765 0.33690912 
0.3548051 0.9166926 0.18381527 
0.31486216 0.9356012 0.15972562 
-0.008108778 0.97499645 0.2220728 
-0.4989579 0.85316503 0.15215258 
-0.7623879 0.5151001 0.39171 
-0.963926 -0.074016295 0.25567245 
-0.9670812 0.21259387 0.13984928 
-0.718617 0.68232626 0.13424055 
-0.34697482 0.937622 0.021757316 
-0.32660326 0.94258887 0.069689624 
-0.22640717 0.95820266 0.17489307 
-0.05888358 0.92681146 0.3708818 
0.7592217 0.40837565 0.5067659 
0.55131346 -0.83420366 -0.012558728 
-0.017154392 -0.9589515 -0.28305122 
-0.023181012 -0.7910528 -0.6113085 
0.3097883 -0.51633734 -0.79839027 
0.46416306 0.71294165 -0.5256109 
0.368037 0.9296317 -0.018267756 
0.13517039 0.9820363 0.13165751 
0.11515018 0.98993576 0.08226614 
0.2396779 0.9626863 0.12565753 
0.3161167 0.9487032 0.0056974743 
0.5153314 0.8529902 -0.08271239 
0.07085648 -0.9586042 -0.27578524 
-0.106966875 -0.9808476 -0.1627763 
-0.17916448 -0.97299004 -0.14556964 
-0.7703162 -0.6358045 -0.048637982 
-0.9858725 -0.14899893 0.0765174 
-0.82332975 0.5233698 0.21957296 
-0.26599407 0.8811409 0.39094484 
0.11679576 0.9353884 0.33377734 
0.3293382 0.93742865 0.112977855 
0.21669474 0.96740603 0.13103032 
-0.18471232 0.9636226 0.19316548 
-0.63266987 0.73805743 0.2345208 
-0.79788035 0.073328376 0.59833926 
-0.76914126 -0.37856808 0.5148865 
-0.8570441 -0.3591461 0.3694448 
-0.9506352 0.15194705 0.27056408 
-0.6436064 0.75449485 0.12848523 
-0.44832912 0.86640495 0.21987142 
-0.3960695 0.8693976 0.2954266 
-0.5872247 0.7543536 0.2934587 
-0.3094136 -0.94890386 0.062005203 
-0.1258735 -0.99015385 -0.061248124 
-0.25763488 -0.93356794 -0.24914917 
0.013064824 -0.9233717 -0.3836848 
0.39389044 -0.56050694 -0.7284795 
0.8581016 0.025387594 -0.5128521 
0.7170553 0.6934029 0.07088151 
0.3451794 0.9244323 0.1620993 
0.1454324 0.9646785 0.21964699 
0.12575142 0.96308094 0.23803748 
0.4633006 0.88215935 -0.08454327 
0.7759591 0.19425963 -0.6001256 
0.36601552 -0.8392346 -0.40214166 
0.10056968 -0.9626454 -0.25139534 
0.029934894 -0.9816178 -0.18849511 
-0.78642553 -0.6169991 -0.029103862 
-0.9756216 -0.031458937 0.21719325 
-0.6895685 0.6023234 0.40212172 
-0.13032445 0.8798833 0.4569693 
0.112919345 0.95145786 0.28631666 
0.17931603 0.97702754 0.11516547 
5.168414e-05 0.99630815 0.08584981 
-0.26703244 0.9465531 0.180917 
-0.5260417 0.7987566 0.29200697 
-0.6113879 -0.42662653 0.66647935 
-0.5191297 -0.6817936 0.51542413 
-0.6479468 -0.5905478 0.48105952 
-0.8637694 0.110078365 0.49171662 
-0.67523474 0.70442444 0.21873358 
-0.34839502 0.9212785 0.17282066 
-0.3157976 0.9465356 0.0658974 
-0.417086 0.9088509 0.0054142983 
-0.38862032 -0.90454024 -0.1754459 
-0.24273925 -0.9630535 -0.11664325 
-0.09878942 -0.9489276 -0.2996283 
0.07513863 -0.95466113 -0.28805602 
0.2819223 -0.9080131 -0.3098905 
0.616891 -0.78279334 0.08173136 
0.90298957 0.4059635 0.14072481 
0.5127731 0.8585239 0.000649447 
0.13811196 0.9903583 0.010752955 
0.0577686 0.9967441 0.05625077 
0.38120463 0.9148989 -0.13282743 
0.7293998 0.466022 -0.5007988 
0.67003393 -0.29410627 -0.68158346 
0.39325184 -0.771708 -0.49981973 
0.22554936 -0.89915437 -0.37503186 
-0.534261 -0.80269736 0.2650324 
-0.45063943 0.2247113 0.8639612 
-0.31384575 0.76950765 0.5562004 
-0.059904158 0.87060755 0.48831746 
0.0765196 0.94092244 0.32986322 
0.06691179 0.9802247 0.18623224 
-0.10018769 0.98440474 0.1446022 
-0.43539095 0.839263 0.3256876 
-0.68943787 0.39649802 0.6061888 
-0.615608 -0.69044244 0.37988958 
-0.5418871 -0.71266454 0.44549724 
-0.8161151 -0.30047366 0.49363118 
-0.8787566 0.43261915 0.20156313 
-0.539324 0.84069246 -0.048640493 
-0.3148971 0.9469475 0.064266846 
-0.29314286 0.9421924 0.16229878 
-0.49294516 0.82483274 0.2768683 
-0.5048437 -0.8631543 -0.009869178 
-0.2784422 -0.95418453 0.10955328 
-0.12909465 -0.9896696 0.062358998 
-0.2192079 -0.9624613 -0.16005027 
-0.035602752 -0.83847624 -0.543774 
0.44550005 -0.75441605 -0.4820645 
0.7853505 0.45420706 -0.42061934 
0.50636023 0.81389195 -0.2849199 
0.20704517 0.95790017 -0.19889595 
0.16468439 0.98226756 -0.08960782 
0.2740607 0.9531052 -0.12837985 
0.44039148 0.88047606 -0.17554897 
0.6923805 0.6146237 -0.377951 
0.74475807 -0.17454201 -0.6441045 
0.5777297 -0.7120296 -0.39905185 
0.21689832 -0.9553434 0.20068435 
0.70638037 0.6910803 0.15308473 
0.24373983 0.923424 0.29644397 
-0.010928108 0.9405656 0.33943626 
0.0093691 0.9643678 0.26439923 
0.037383262 0.97965693 0.19716714 
-0.08388286 0.98553425 0.14726202 
-0.40186626 0.90011334 0.16822457 
-0.8901714 0.42217973 0.17134517 
-0.82611126 -0.5634006 0.010951615 
-0.6709473 -0.69738156 0.2519698 
-0.89487725 -0.28523812 0.34326944 
-0.66731733 0.7446591 -0.013054692 
-0.3469291 0.9362373 -0.055677377 
-0.21278189 0.9686577 0.12816475 
-0.15547004 0.9650275 0.21107146 
-0.35940143 0.8898889 0.28094232 
-0.90584534 0.048647113 0.42080602 
-0.4981323 -0.65677166 0.5661408 
-0.29147723 -0.9343524 0.20500453 
-0.69002616 -0.66209805 -0.2923869 
-0.6824659 -0.24312428 -0.68929744 
-0.5300567 0.41856363 -0.73745805 
0.14357872 0.82427526 -0.547682 
0.3280076 0.8533322 -0.40525952 
0.22745727 0.9418581 -0.24731845 
0.16409743 0.9852809 -0.047893383 
0.14887309 0.9865505 -0.067490645 
0.18768308 0.98132443 -0.042160545 
0.3701041 0.9240927 -0.09526716 
0.6524664 0.7270099 -0.2138791 
0.77620596 0.6003885 -0.19245249 
0.36626264 -0.8731386 0.32168436 
-0.40731516 0.8528723 0.3266547 
-0.25032824 0.95653105 0.1496139 
-0.21941617 0.972842 0.07372379 
-0.10192295 0.993938 0.041217312 
-0.06072923 0.9950756 0.07833688 
-0.12512964 0.9904937 0.05713907 
-0.28968742 0.94940287 0.12130722 
-0.75190926 0.64553654 0.13384697 
-0.99089265 -0.01084447 0.13421725 
-0.89621323 -0.18499446 0.4032108 
-0.92018086 0.058292735 0.3871295 
-0.4673669 0.88405716 -0.0033608617 
-0.26316074 0.9615226 -0.078872085 
-0.31677032 0.94576615 0.07199343 
-0.26210135 0.9408559 0.2146929 
-0.25350204 0.92037106 0.2977481 
-0.5038292 0.7112418 0.4901952 
-0.032396633 0.47078982 0.8816504 
0.5392643 0.8271881 -0.15796839 
-0.28415003 0.7802553 -0.55718976 
-0.43063432 0.65327036 -0.6227295 
-0.18560612 0.84650034 -0.4989865 
0.11447967 0.9661278 -0.23128211 
0.099957 0.97688866 -0.18893683 
0.04785534 0.9894156 -0.13699208 
0.09094289 0.9943464 -0.054816075 
0.15087101 0.98305655 -0.10410546 
0.14813721 0.9889141 0.0102213165 
0.24343567 0.9640227 0.10676847 
0.40862873 0.9124446 0.021620698 
0.5019252 0.86384183 -0.042994708 
0.4406433 -0.70987004 0.5494707 
0.14034715 0.923656 0.3565984 
-0.03478397 0.99723643 0.06564839 
-0.14322793 0.9882047 -0.054197 
-0.06815764 0.9947646 -0.07614453 
-0.030334095 0.99667895 -0.07557165 
-0.043076847 0.99033844 -0.13181125 
-0.07999711 0.9920644 -0.09699883 
-0.37879166 0.9243838 -0.045071073 
-0.57696986 0.81669325 0.010861678 
-0.59432113 0.80016696 0.080717556 
-0.5659431 0.8223511 -0.05871091 
-0.2380348 0.9679488 -0.08009057 
-0.12914495 0.9860245 -0.105249085 
-0.21143362 0.96786016 -0.13617177 
-0.28549358 0.93514436 -0.20975825 
-0.32099557 0.9382124 -0.12930307 
-0.3149562 0.94904596 0.010699415 
-0.001641599 0.9785602 0.20595472 
0.26522774 0.9478812 -0.17656608 
-0.017002715 0.96334827 -0.26771444 
-0.1867211 0.9774257 -0.09886523 
-0.09769815 0.9911811 0.08952837 
-0.06509941 0.9732171 0.2204779 
-0.1718515 0.98399836 0.0470578 
-0.19007023 0.9805495 -0.04894953 
-0.12583576 0.9917518 -0.024370171 
0.065604 0.99765974 -0.01926953 
0.16822201 0.98471767 0.04508244 
0.25669038 0.9642265 0.06616115 
0.33583343 0.937924 -0.08668557 
0.39879096 0.8967147 -0.19201227 
0.2514802 -0.7173457 0.6497483 
0.12308626 0.5369125 0.8346105 
-0.06115489 0.96542865 0.25339216 
-0.15094863 0.98759633 -0.043222465 
-0.13345586 0.98393 -0.11862278 
-0.084673144 0.9946957 -0.058403842 
0.03468257 0.99676484 -0.07250448 
0.0351114 0.98700404 -0.15681303 
-0.15795851 0.9733134 -0.16646408 
-0.17573951 0.9657494 -0.19090283 
-0.2201606 0.9571884 -0.18793523 
-0.2066132 0.9580416 -0.19866407 
-0.1094407 0.99269414 -0.05080615 
-0.085223034 0.99602854 -0.025771687 
-0.066254325 0.9925947 -0.101813816 
-0.101476505 0.95568687 -0.27634245 
-0.14291383 0.96514076 -0.2192692 
-0.043105017 0.99823487 -0.040854085 
0.16825585 0.9852844 0.030076956 
0.29824722 0.94637644 -0.12417882 
0.17127784 0.9820255 -0.07930954 
-0.06488117 0.9953779 0.07080545 
-0.1610994 0.95280254 0.2573213 
-0.35226125 0.89541274 0.27230138 
-0.40006915 0.9154579 -0.043377757 
-0.27815706 0.9383209 -0.20538421 
-0.20692016 0.96863747 -0.13757086 
0.0696984 0.9964649 -0.046902757 
0.2727092 0.9613337 -0.03830593 
0.26874784 0.95825416 -0.09758934 
0.23153795 0.9568518 -0.1755703 
0.2846357 0.9446811 -0.16297281 
0.31476653 -0.02971729 0.9487038 
0.088012576 0.515477 0.85237163 
-0.09694944 0.9292138 0.35659873 
-0.15324259 0.9879683 0.020866735 
-0.12250571 0.9886931 -0.08647774 
-0.033677142 0.9993237 -0.014767081 
0.07972372 0.9953019 -0.054939818 
-0.006042666 0.9840217 -0.17794645 
-0.14206661 0.9798789 -0.14019437 
-0.09567701 0.9806794 -0.17062816 
-0.03393897 0.98964363 -0.13947622 
0.02079332 0.9901398 -0.13853103 
0.019704767 0.99976355 -0.0092027765 
-0.09784754 0.9946994 0.03160916 
-0.022046177 0.9975864 -0.06584283 
0.015884122 0.97248 -0.23244421 
-0.031268187 0.9875608 -0.15409748 
-0.001679567 0.99704784 0.07676569 
0.14266148 0.9778752 0.15299655 
0.23973434 0.96900827 0.059586745 
0.25317225 0.96015424 0.118354395 