# OOMMF OVF 2.0
# Segment count: 1
# Begin: Segment
# Begin: Header
# Title: m
# meshtype: rectangular
# meshunit: m
# xmin: 0
# ymin: 0
# zmin: 0
# xmax: 1.6e-07
# ymax: 1.6e-07
# zmax: 5e-09
# valuedim: 3
# valuelabels: m_x m_y m_z
# valueunits: 1 1 1
# Desc: Total simulation time:  1.2257026538886181e-11  s
# xbase: 2.5e-09
# ybase: 2.5e-09
# zbase: 2.5e-09
# xnodes: 32
# ynodes: 32
# znodes: 1
# xstepsize: 5e-09
# ystepsize: 5e-09
# zstepsize: 5e-09
# End: Header
# Begin: Data Text
0.3478191 -0.9258232 -0.14789619 
0.1433675 -0.98053336 0.13416457 
0.13613634 -0.952377 0.272846 
0.17080818 -0.97377974 0.15025878 
0.32093877 -0.9424521 -0.09371513 
0.81116194 -0.56853074 -0.13707356 
0.71583754 0.689874 0.107938245 
0.5376081 0.8423297 0.03818832 
0.6527842 0.75670695 -0.035600897 
0.6893399 0.6525587 -0.3146073 
0.5935533 0.025791794 -0.80438143 
0.30072343 -0.7493553 -0.5899425 
0.054738615 -0.83386695 -0.54924464 
-0.34199262 -0.35108185 -0.87165505 
0.5141185 0.83298105 0.20451137 
0.27401328 0.92460376 0.26462165 
0.2560493 0.9634808 0.07838126 
0.49087787 0.8529488 -0.1775315 
0.57832676 0.784377 -0.22425663 
0.6384226 0.76767427 -0.055613264 
0.95990264 -0.13956878 0.24312055 
0.5834548 -0.80973417 -0.06253914 
0.2349079 -0.9715272 -0.030874861 
0.028803347 -0.9977015 0.06133493 
-0.17088751 -0.98150504 0.08628711 
-0.48474982 -0.85641044 0.17770424 
-0.9417033 -0.18497732 0.28103057 
-0.7761888 0.56313825 0.28356007 
-0.67275697 0.6751383 0.30263245 
-0.5743098 0.808278 0.12982675 
-0.3897787 0.9207196 -0.018652368 
-0.21960108 0.97557855 0.00469602 
0.19173585 -0.95834696 -0.21168013 
0.1128223 -0.9933185 0.024281848 
0.23780113 -0.95319796 0.1867199 
0.29831862 -0.95381695 0.0352027 
0.44111267 -0.8835947 -0.15709925 
0.9208184 -0.38338056 -0.07150477 
0.6126822 0.7606804 0.21444318 
0.41480988 0.9095392 0.025908636 
0.506674 0.86213374 -0.0026283236 
0.60359013 0.76144344 -0.23639573 
0.6021558 -0.014772774 -0.798242 
0.3492176 -0.6930738 -0.6306313 
0.16493985 -0.64419353 -0.7468665 
0.13169025 0.49410483 -0.8593707 
0.36143342 0.9302546 0.06318491 
0.3015612 0.92288464 0.2394681 
0.38101944 0.91672313 0.12017894 
0.5091202 0.8606767 -0.0056782165 
0.40970924 0.90938044 0.07187262 
0.36603642 0.92774326 0.07286837 
0.8034228 0.58224905 -0.12449061 
0.9460505 -0.1704844 -0.27554244 
0.5336621 -0.8425856 0.07248675 
-0.12430494 -0.94265455 0.30975908 
-0.5834446 -0.7726357 0.25025308 
-0.8851523 -0.41663766 0.20716798 
-0.9611623 0.27522913 -0.02039699 
-0.70425445 0.70968896 0.019166732 
-0.56304383 0.8223126 0.082363196 
-0.5123505 0.85723466 0.05143805 
-0.39603105 0.9181316 0.013923066 
-0.27856788 0.96004534 -0.026700454 
0.3858567 -0.82918584 -0.40443248 
0.39423952 -0.9145416 -0.09049291 
0.5581244 -0.82781106 0.05679742 
0.60735315 -0.79389834 -0.029114325 
0.74717575 -0.64216954 -0.17130929 
0.94861037 0.25344512 -0.1894834 
0.4834951 0.87430626 -0.04267411 
0.23057613 0.94964784 -0.21214104 
0.23980568 0.934334 -0.2636537 
0.25921112 0.8191095 -0.5117317 
0.25713074 0.22752891 -0.9392095 
0.2964687 -0.045059875 -0.953979 
0.072830796 0.31126803 -0.9475273 
0.20241593 0.91716325 -0.3432773 
0.2746064 0.95412034 0.11935614 
0.30236927 0.93609303 0.17972991 
0.39738655 0.9148263 0.07195166 
0.40862232 0.910223 0.06724564 
0.28098264 0.9554 0.09088248 
0.15484852 0.98692787 0.044669513 
0.2530457 0.96745056 -0.0027299896 
0.4235667 0.88806725 0.17868379 
0.71329147 0.54417264 0.44169152 
-0.3420105 -0.0747555 0.9367179 
-0.88841075 0.00062952837 0.45904914 
-0.94831854 0.23016787 0.21843743 
-0.8533156 0.51370853 0.0891973 
-0.6820246 0.7312425 0.0112637505 
-0.5067571 0.85981435 -0.06258156 
-0.3804703 0.9239706 -0.038997218 
-0.27522784 0.9588297 0.06996681 
-0.2510881 0.9631384 0.09653596 
0.74432915 0.21520148 -0.63218874 
0.881998 -0.13565323 -0.45130667 
0.9174311 -0.11719621 -0.38024363 
0.9591412 0.055119097 -0.27750704 
0.91251135 0.30133003 -0.27662858 
0.6484547 0.7241213 -0.23485094 
0.28224215 0.94577277 -0.16078924 
0.054910656 0.9584539 -0.27991244 
-0.029607736 0.9326935 -0.35945266 
-0.10603759 0.8092855 -0.57776564 
-0.03718828 0.53216666 -0.8458225 
0.060842987 0.6414468 -0.764751 
0.19040886 0.8327537 -0.519871 
0.21185598 0.97481835 -0.0696144 
0.16845554 0.9800605 0.10537727 
0.13978004 0.99016076 0.006585853 
0.21018612 0.97284085 -0.09696605 
0.2632404 0.9641969 -0.03207747 
0.2888232 0.95718735 -0.01932867 
0.22969528 0.97324586 -0.005723808 
0.23627816 0.9695969 -0.063675046 
0.25991184 0.9645385 0.045948874 
0.5145059 0.81726104 0.25955373 
0.21999313 0.7304245 0.6465934 
-0.13061927 0.7777743 0.6148218 
-0.35233387 0.8661792 0.35439315 
-0.46514824 0.8240241 0.32345235 
-0.5340843 0.8296583 0.16254562 
-0.4462673 0.893564 -0.048878383 
-0.30926493 0.94986314 -0.045992613 
-0.27577242 0.95817375 0.07650316 
-0.41302773 0.8889985 0.19771138 
0.7648775 0.6340998 -0.11349056 
0.63051754 0.76489264 -0.13185981 
0.41398963 0.8761319 -0.24699308 
0.51533514 0.847715 -0.1257337 
0.55729556 0.8176578 -0.14442071 
0.3580559 0.9174108 -0.17364801 
0.090048656 0.9954154 -0.032239635 
-0.03131537 0.99492425 -0.09562997 
-0.1363621 0.95614177 -0.25922638 
-0.3013121 0.8624516 -0.40667948 
-0.37495488 0.67357767 -0.6369474 
-0.44954565 0.68694824 -0.5709737 
-0.05933077 0.86368084 -0.50053495 
0.20771818 0.97309834 -0.09966378 
0.14922746 0.97758514 0.14852105 
0.095707566 0.9931553 0.06695318 
0.10189005 0.99322855 -0.055816714 
0.16371012 0.983356 -0.07880394 
0.25616804 0.96229523 -0.091466196 
0.19439426 0.9805423 -0.02734249 
0.12872279 0.9914285 0.022360697 
0.10736759 0.9853502 0.13250433 
0.18745925 0.9556048 0.22732915 
0.23501773 0.94547385 0.22549024 
0.2567292 0.91730154 0.30438164 
0.11858599 0.9639041 0.23838286 
0.060869854 0.9468597 0.31583482 
-0.12769993 0.942461 0.30896595 
-0.28955996 0.94884056 0.1259233 
-0.3204003 0.94162947 0.10333367 
-0.49043545 0.84802246 0.20082594 
-0.85124457 0.33306837 0.40552205 
0.23433198 0.9587776 0.1607299 
0.13123183 0.9905597 0.03962131 
0.035948597 0.99668115 -0.073037356 
0.17622964 0.98260915 -0.05850159 
0.22220941 0.96769506 -0.119118765 
0.16574247 0.98432094 -0.060347207 
0.14679335 0.9865428 0.072007306 
0.16933538 0.9810581 -0.09407717 
0.01402981 0.9724286 -0.23277847 
-0.12590067 0.96708417 -0.22112739 
-0.32360205 0.87395537 -0.3626069 
-0.46106014 0.8395839 -0.2872672 
-0.26172927 0.89118683 -0.37051824 
0.058078423 0.99649113 -0.0602702 
0.10571675 0.97068954 0.21583752 
0.10105257 0.98275405 0.15486434 
0.10686594 0.991631 0.072441265 
0.10578737 0.9940877 0.024472034 
0.15758033 0.9874946 -0.004799426 
0.05536851 0.99781454 -0.036062926 
-0.016822016 0.99929637 -0.03352238 
-0.0013613814 0.99726206 0.073936984 
0.002048748 0.98593193 0.16713504 
0.055918787 0.9963749 0.06411156 
0.16040574 0.9825253 0.09441434 
0.1264894 0.98643696 0.10460676 
0.1542663 0.9628214 0.2217588 
0.062414847 0.9545681 0.2913832 
-0.15844369 0.97181624 0.17455342 
-0.27282965 0.9502649 0.15020262 
-0.52556753 0.8128706 0.25103799 
-0.60120684 -0.55468035 0.5752218 
-0.15108879 0.9870819 0.05330674 
-0.101878606 0.9915723 0.08003263 
-0.105882384 0.9924781 0.0614506 
0.044041716 0.9981385 0.042189755 
0.12963808 0.98878187 -0.07419233 
0.08470343 0.9959851 -0.028967457 
0.11302369 0.99261755 0.044003215 
0.21641694 0.9746257 -0.05717215 
0.17314 0.98396254 -0.042899594 
0.10869157 0.98971975 -0.09295669 
-0.17072766 0.9640349 -0.20368789 
-0.3110682 0.94843125 -0.060950276 
-0.40069002 0.91448313 -0.056287203 
-0.21937077 0.9701869 0.103023976 
-0.07122538 0.9778265 0.19693244 
0.015792837 0.9933284 0.11423425 
0.0708013 0.99145514 0.109562226 
0.006289839 0.99035925 0.13837992 
-0.061773367 0.9914791 0.114687674 
-0.19406264 0.97856045 -0.068987265 
-0.23003657 0.9453039 -0.2312654 
-0.15063772 0.97182596 -0.18128064 
-0.1267935 0.99146974 -0.030186571 
-0.09834672 0.99496037 -0.019543143 
0.028360518 0.9980167 -0.056200072 
0.042274226 0.99672973 -0.06886901 
0.025017904 0.9987784 0.042613383 
0.02125409 0.9806914 0.19440353 
-0.10081191 0.98589146 0.13362285 
-0.2204909 0.97480214 0.0338326 
-0.46532106 0.8745486 -0.13653253 
-0.10928096 -0.9789994 0.17209847 
-0.13308759 0.9845175 0.114074856 
-0.10031058 0.99051636 0.09388928 
-0.059989966 0.9971978 0.04469617 
0.11880074 0.9929135 0.0030554177 
0.11386009 0.99282414 -0.03655273 
-0.030366756 0.9965168 0.07766638 
0.063169025 0.98757607 0.14388654 
0.24510702 0.96551645 0.08775313 
0.28633636 0.9559235 0.06497625 
0.34738383 0.9259563 -0.1480861 
0.0576444 0.9958555 -0.07034813 
-0.07173838 0.88010836 0.46932197 
-0.47644204 0.82475036 0.30461434 
-0.3744475 0.9122508 0.16609481 
-0.21963459 0.97300106 0.07091928 
-0.10738566 0.9914511 0.0741153 
0.016559243 0.9954068 0.094293766 
0.034187276 0.99590683 0.08367139 
-0.022963839 0.9982193 0.05505482 
-0.21107246 0.9720684 -0.10262243 
-0.34983453 0.84922135 -0.39552388 
-0.2127071 0.8556862 -0.47175944 
-0.16586575 0.91962993 -0.3560468 
-0.14188139 0.9744196 -0.17428756 
-0.07200846 0.9903433 -0.1184692 
-0.030462375 0.991937 -0.1230164 
-0.087719746 0.99572647 -0.02888328 
-0.06564511 0.9909855 0.116784334 
-0.06018011 0.99540573 0.074470624 
-0.05604047 0.9982426 -0.019268164 
-0.050045535 0.9605794 -0.27346426 
0.07733254 -0.98049766 0.18067645 
0.075792246 0.9798778 0.18464881 
0.10427602 0.98761946 0.11719384 
0.10885506 0.99373174 0.025454035 
0.15498416 0.981307 -0.11408972 
0.1561994 0.9875137 0.020454485 
0.06618967 0.9833163 0.16943474 
0.14032215 0.98270357 0.12084507 
0.16294801 0.98660374 -0.0078049325 
0.12325084 0.9619247 -0.2439474 
0.2871535 0.59782475 -0.74843067 
0.27223286 0.8710894 -0.4087698 
0.6497918 0.1594961 0.7431903 
-0.55565536 0.5889536 0.5868397 
-0.5309609 0.8221208 0.20542139 
-0.38297322 0.9213599 -0.0665409 
-0.21837708 0.975303 0.033099305 
-0.0659137 0.99219835 0.10581996 
-0.041023105 0.9987109 0.029897768 
-0.13849336 0.9895891 -0.039154314 
-0.43553475 0.8896108 -0.1374853 
-0.6445809 0.51058227 -0.569053 
-0.4140562 0.3414625 -0.8437777 
-0.42752418 0.39920348 -0.81108546 
-0.3652282 0.83593863 -0.40965217 
-0.2108068 0.95667124 -0.20085034 
-0.087596014 0.98424214 -0.15360449 
-0.1423045 0.9881378 -0.05773329 
-0.09358803 0.9953844 0.02124605 
0.004820563 0.999824 -0.018134274 
0.21306261 0.97439927 0.07176705 
0.95215607 -0.17224802 0.2524469 
0.25333336 -0.9569446 0.14170182 
0.5621559 0.8148348 0.14151071 
0.64585775 0.7605887 -0.06612666 
0.46503222 0.8673368 -0.1774035 
0.25942305 0.9380773 -0.22958839 
0.25251156 0.9672581 -0.025491845 
0.07781165 0.9873854 0.13789704 
-0.0702735 0.9796074 0.18823147 
-0.25165868 0.94994265 0.18514061 
-0.45715293 0.88618964 0.07535988 
-0.05780684 -0.18304381 -0.98140377 
-0.029997718 -0.9981861 -0.05219882 
-0.24364406 -0.87518585 0.41795632 
-0.52525854 -0.84492445 -0.10102565 
-0.77689123 -0.5428373 -0.3190105 
-0.7563064 -0.20432249 -0.6214925 
-0.516312 0.7954565 -0.31728682 
-0.18440211 0.9810314 -0.059777245 
-0.22440155 0.9744123 -0.0128346095 
-0.4595612 0.8868141 -0.048624102 
-0.9040764 0.4249141 -0.045759708 
-0.74156433 -0.5769209 -0.34241 
-0.4847543 -0.7991907 -0.35539767 
-0.562743 -0.7430388 -0.3622343 
-0.4873068 0.71343505 -0.5035301 
-0.24243477 0.96029526 -0.13805187 
-0.2078018 0.97635895 -0.059511296 
-0.23975132 0.9672697 -0.08311897 
-0.14567654 0.9813698 -0.12526657 
-0.062833756 0.9858137 -0.15563886 
-0.026431175 0.9937411 0.10853654 
0.11122792 -0.27779585 0.9541792 
-0.033143263 -0.895699 0.44342405 
0.61216724 -0.7899717 -0.03458527 
0.77524114 -0.5097563 -0.37302783 
0.8821447 -0.1223855 -0.45479947 
0.5592209 0.828906 -0.013670174 
0.3466989 0.92510104 0.15488042 
0.10605279 0.96949977 0.2209593 
-0.06892267 0.96988165 0.2336219 
-0.24238923 0.942797 0.22886974 
-0.36436737 0.88410914 0.29255348 
0.6021047 -0.56587255 -0.56325674 
0.17903174 -0.89982814 0.39781547 
-0.0975524 -0.94288373 0.3185183 
-0.3479661 -0.93652195 0.042969815 
-0.6049521 -0.79616964 0.012121749 
-0.8158386 -0.50071055 0.28930354 
-0.88894373 0.31621572 -0.33134073 
-0.41051137 0.8829797 -0.22765632 
-0.37179172 0.92430186 -0.08623847 
-0.5402034 0.832427 -0.12347297 
-0.96773523 0.2282545 -0.106717244 
-0.6009039 -0.7582559 -0.2529081 
-0.4215511 -0.8967514 -0.13465402 
-0.61088604 -0.7894689 -0.059642777 
-0.7244041 0.6480612 -0.23506486 
-0.4576064 0.88914895 0.0032369068 
-0.48541334 0.87403166 0.021040864 
-0.48668763 0.8639436 -0.12936994 
-0.32511643 0.9149885 -0.23894627 
-0.23738925 0.9481895 -0.21114723 
-0.36776572 0.92911315 -0.03869401 
-0.7540937 -0.027161716 0.65620506 
-0.50179213 -0.6236489 0.5993888 
0.25637704 -0.9652824 0.050006706 
0.34002778 -0.93829906 -0.063056506 
0.42521742 -0.9045213 -0.032115363 
0.56697935 0.7022994 0.43047643 
0.39567205 0.8794062 0.26474243 
0.17880794 0.95775765 0.2252289 
0.0494961 0.9885613 0.14246671 
0.034970514 0.9991519 0.021739412 
0.31785125 0.94529814 -0.07336185 
0.80429965 -0.45897895 -0.37741297 
0.4037555 -0.8716308 0.27792332 
0.26376832 -0.9328965 0.2452151 
-0.14303096 -0.97638774 0.16189265 
-0.60137665 -0.7907825 -0.11405813 
-0.90416384 -0.41957086 -0.08030038 
-0.7676031 0.5864647 -0.25854337 
-0.37437892 0.9104363 -0.17591572 
-0.28635153 0.94908434 -0.13130772 
-0.3666916 0.9004446 -0.23395911 
-0.8783775 0.35530257 -0.319708 
-0.46645874 -0.75620973 -0.45887172 
-0.36779115 -0.90128016 -0.22896276 
-0.6277473 -0.767929 -0.12735139 
-0.87401783 0.46509823 0.14062898 
-0.6650705 0.70057446 0.25860548 
-0.65380317 0.74905807 0.10702128 
-0.6616496 0.7450138 -0.08470162 
-0.56512165 0.80934584 -0.15999039 
-0.4448332 0.8875979 -0.119554594 
-0.5021129 0.8614403 -0.07618004 
-0.8520491 0.23234285 0.46907264 
-0.650694 -0.5260781 0.5475758 
0.07034729 -0.9760035 0.20607859 
0.09488016 -0.98379755 0.15211926 
-0.06775185 -0.95606184 0.28522885 
0.19729754 0.7726397 0.6034084 
0.30253518 0.931639 0.20129894 
0.19472736 0.9740665 0.115220435 
0.13366029 0.9857934 0.10171687 
0.21291314 0.9765458 -0.032037687 
0.48984018 0.8607607 -0.13837491 
0.97510153 0.21114396 -0.067788124 
0.56863236 -0.7710637 0.28656265 
0.38950783 -0.92101276 -0.0043842755 
0.16187096 -0.9857856 -0.044995748 
-0.20547774 -0.97848696 -0.018496152 
-0.95161796 -0.29519978 -0.085324824 
-0.5762432 0.8152358 0.057746004 
-0.25610238 0.96527314 -0.05156839 
-0.18913493 0.9661863 -0.17524862 
-0.23763067 0.8782011 -0.41508391 
-0.6036113 0.23172149 -0.762862 
-0.26920614 -0.76744425 -0.5818569 
-0.5016787 -0.8411014 -0.20215605 
-0.7972119 -0.5871615 -0.14033811 
-0.94269586 0.2316951 0.2400876 
-0.7181797 0.57606864 0.39033678 
-0.6341186 0.74772894 0.19696479 
-0.7283816 0.6787925 -0.09327984 
-0.6090078 0.773337 -0.17623673 
-0.3731531 0.9254402 -0.06570601 
-0.5101279 0.85985935 0.020283973 
-0.9528345 0.18126726 0.24341051 
-0.6720369 -0.70167965 0.23666902 
0.087545775 -0.98269874 0.16321453 
-0.015633447 -0.9810195 0.19327804 
-0.2622914 -0.90593135 0.3324029 
0.08877646 0.7586961 0.6453674 
0.36461884 0.91256076 0.1851649 
0.2575235 0.9662248 0.009560903 
0.09789321 0.9951852 -0.0048441486 
0.13352425 0.98556435 -0.104087256 
0.38396534 0.903854 -0.18872862 
0.88731164 0.44183162 -0.1321472 
0.5521777 -0.823781 0.12839322 
0.35102224 -0.8962683 -0.271084 
0.41293123 -0.8885578 -0.19988225 
0.53961635 -0.78831446 0.29559207 
-0.103832915 0.3464054 0.9323208 
-0.040118065 0.9360937 0.3494556 
0.052307904 0.9977399 0.042177178 
0.08025233 0.98888445 -0.12516843 
-0.049719412 0.951319 -0.3041713 
-0.38344893 0.7842884 -0.4877074 
-0.49094808 0.45882192 -0.7405758 
-0.48912886 0.46830007 -0.73583156 
-0.47080067 0.8019727 -0.3676772 
-0.37538588 0.9257109 0.04631319 
-0.33521366 0.9350616 0.11528967 
-0.28939512 0.9525125 -0.094712615 
-0.5122741 0.8477178 -0.13765828 
-0.6188827 0.7810884 -0.08297618 
-0.43304807 0.89452267 0.110899135 
-0.6685382 0.631716 0.39241776 
-0.88323516 -0.39114982 0.25864547 
-0.53296864 -0.83468163 0.13874772 
0.07906424 -0.9954939 -0.05235217 
-0.1274083 -0.99121416 0.035520073 
-0.51344895 -0.8008326 0.30828112 
-0.15978119 0.8880467 0.43109506 
0.114502676 0.98417246 0.13525401 
0.06469188 0.9954621 -0.06978761 
-0.04474755 0.9901566 -0.13261804 
-0.044410627 0.98450714 -0.16962759 
0.21463569 0.97082 -0.10695842 
0.6275005 0.72730327 -0.27798045 
0.81080496 0.16933241 -0.5602874 
0.72266906 -0.18046522 -0.6672194 
0.80566484 -0.06929823 -0.5883044 
0.84142894 0.5126738 -0.17077197 
0.33723414 0.9373225 0.08774772 
0.05661722 0.99458486 0.08715177 
0.010428757 0.9999364 -0.004310843 
0.019096462 0.98281926 -0.18358038 
-0.048576683 0.98154014 -0.1849844 
-0.16825406 0.9643327 -0.20433602 
-0.24019313 0.9500631 -0.19921723 
-0.14433166 0.9762737 -0.16142534 
-0.11064522 0.9933008 -0.03333388 
-0.09815926 0.9950983 -0.012015312 
-0.16573347 0.98591727 -0.022352975 
-0.20312735 0.97270477 -0.11218142 
-0.4192387 0.9076743 -0.019139301 
-0.5841848 0.8093387 0.06082073 
-0.518918 0.8475813 0.111041054 
-0.9020897 0.22357827 0.36911666 
-0.5666843 -0.8233904 0.029952101 
-0.25392312 -0.965246 0.06183236 
-0.019966347 -0.9996835 -0.015310474 
-0.29739046 -0.954668 0.01296549 
-0.91569364 -0.32538137 0.2358649 
-0.41687104 0.90670574 0.064056985 
-0.34247002 0.93676853 0.07196529 
-0.3099686 0.94164675 0.13122922 
-0.20902625 0.9762231 0.05741609 
-0.16023181 0.9867016 0.027307253 
0.12026394 0.98948896 0.080300555 
0.21702896 0.9732391 -0.07552545 
0.24033251 0.95197016 -0.18971886 
0.44715422 0.80203754 -0.39596575 
0.61850744 0.62241685 -0.4796311 
0.47776946 0.8777895 0.034959417 
0.056117684 0.99399376 0.09395329 
0.022380179 0.99974954 0.00033457315 
0.04560695 0.9935427 -0.103888765 
-0.06971778 0.98132116 -0.1792995 
0.06396072 0.9970123 -0.04330884 
0.08281091 0.96857303 -0.23453948 
0.03945721 0.99910927 -0.014966423 
-0.059720606 0.9978149 0.028265396 
-0.017662069 0.9998261 0.005995196 
0.07820116 0.9968507 -0.013167416 
-0.06493077 0.9976869 0.020119475 
-0.17360273 0.984165 0.03579806 
-0.42189062 0.8800496 0.21799324 
-0.53944707 0.8248707 0.16907214 
-0.47074696 0.8785981 0.08039141 
-0.88897526 0.033670917 0.4567158 
-0.41190195 -0.8992764 0.14710172 
-0.16641286 -0.9831668 0.075431615 
-0.16642384 -0.9831644 0.0754383 
-0.41191924 -0.89927113 0.14708546 
-0.888986 0.033633295 0.45669758 
-0.47065377 0.8786478 0.08039403 
-0.5395082 0.8248442 0.16900599 
-0.4219509 0.88004297 0.21790318 
-0.17363767 0.98416245 0.03569918 
-0.064996526 0.99768364 0.020069517 
0.07811888 0.99685687 -0.013188082 
-0.01775941 0.9998235 0.0061333114 
-0.059616294 0.9978155 0.0284632 
0.039496418 0.9991094 -0.01485162 
0.08295205 0.9686035 -0.23436348 
0.064091355 0.99700254 -0.043340206 
-0.069762565 0.98133594 -0.17920133 
0.045705073 0.9935651 -0.10363133 
0.022660103 0.99974316 0.00049821695 
0.056239326 0.99398184 0.09400713 
0.4775249 0.87791884 0.035051085 
0.61826795 0.6223656 -0.48000604 
0.44705132 0.8020569 -0.39604285 
0.24010164 0.952022 -0.18975045 
0.21695411 0.9732471 -0.07563825 
0.12029992 0.98949057 0.080227844 
-0.16014247 0.98671633 0.027301013 
-0.20893133 0.9762413 0.057451315 
-0.3098573 0.94168127 0.13124354 
-0.34240577 0.9367914 0.07197428 
-0.41692796 0.9066786 0.0640713 
-0.91571003 -0.32531893 0.23588702 
-0.29739818 -0.9546653 0.012988105 
-0.019965865 -0.9996835 -0.015309422 
-0.25391698 -0.9652468 0.061844412 
-0.5666977 -0.8233808 0.029962346 
-0.9020959 0.22357751 0.3691019 
-0.5188927 0.8475874 0.11111254 
-0.5841687 0.8093521 0.060796738 
-0.41914687 0.9077163 -0.019163745 
-0.20305617 0.97271246 -0.11224441 
-0.16572313 0.98591787 -0.022401953 
-0.09814466 0.995099 -0.012066605 
-0.110628836 0.99330115 -0.033377998 
-0.14435679 0.97625804 -0.16149795 
-0.24043351 0.9500195 -0.19913507 
-0.16830169 0.9643479 -0.20422469 
-0.048572566 0.98157525 -0.18479924 
0.019213544 0.9828734 -0.1832783 
0.0107459575 0.99993443 -0.0039773323 
0.056969702 0.99457365 0.08705078 
0.33702418 0.93743384 0.08736514 
0.841081 0.51334125 -0.17047998 
0.80518687 -0.069292516 -0.588959 
0.7224518 -0.18129206 -0.66723055 
0.8109939 0.16915719 -0.56006676 
0.62741417 0.7273663 -0.2780103 
0.21461982 0.9708165 -0.107021935 
-0.044378906 0.98450685 -0.1696376 
-0.044733264 0.99015796 -0.13261318 
0.06472456 0.995457 -0.0698307 
0.11457072 0.9841717 0.1352024 
-0.15979335 0.88805175 0.43108052 
-0.5134443 -0.8008459 0.30825457 
-0.1274001 -0.9912158 0.035502408 
0.07906826 -0.9954925 -0.05237371 
-0.53296465 -0.8346847 0.13874534 
-0.88324 -0.39113897 0.2586454 
-0.6685395 0.63173634 0.39238256 
-0.4330942 0.89449716 0.11092466 
-0.6188432 0.78112346 -0.082942426 
-0.5121502 0.84779775 -0.13762693 
-0.2893274 0.9525192 -0.09485165 
-0.33530512 0.9350527 0.11509557 
-0.37549984 0.9256716 0.04617497 
-0.47090706 0.80188495 -0.3677324 
-0.48909214 0.4682703 -0.7358749 
-0.49098942 0.45859516 -0.74068886 
-0.38353035 0.78420156 -0.4877831 
-0.049827643 0.9513261 -0.3041315 
0.08013257 0.9889183 -0.12497824 
0.052240726 0.9977356 0.042362805 
-0.039961316 0.9361616 0.34929153 
-0.103599645 0.34742427 0.9319676 
0.5395295 -0.7888682 0.2942701 
0.4122931 -0.8887009 -0.20056257 
0.3504866 -0.8964677 -0.2711179 
0.5521466 -0.82377875 0.12854123 
0.8872188 0.44200158 -0.13220276 
0.38396218 0.90385765 -0.1887179 
0.13354503 0.9855649 -0.1040567 
0.09790572 0.995184 -0.004825368 
0.25755408 0.9662172 0.009497419 
0.36466506 0.9125562 0.18509667 
0.08874087 0.7586693 0.64540374 
-0.26226377 -0.90593493 0.33241498 
-0.015608367 -0.98102075 0.1932741 
0.08757539 -0.9826991 0.16319624 
-0.6720446 -0.7016699 0.23667611 
-0.95282966 0.1812788 0.24342106 
-0.51009643 0.8598786 0.020262517 
-0.37319106 0.9254237 -0.06572203 
-0.60900563 0.7733474 -0.1761988 
-0.7283467 0.67883587 -0.0932364 
-0.6341026 0.74775976 0.19689934 
-0.71818656 0.57609683 0.39028278 
-0.9426888 0.23174962 0.2400625 
-0.7972399 -0.5871119 -0.14038663 
-0.5017124 -0.8410701 -0.20220265 
-0.26914868 -0.7674993 -0.5818107 
-0.60354245 0.2315656 -0.7629639 
-0.23767737 0.8781649 -0.4151336 
-0.18929256 0.9661699 -0.1751687 
-0.25628796 0.96523327 -0.051393162 
-0.576323 0.8151478 0.058188424 
-0.95168996 -0.2951692 -0.08462497 
-0.20544396 -0.9784846 -0.018993437 
0.16160575 -0.9858175 -0.045249224 
0.38934508 -0.921082 -0.0043023773 
0.56874365 -0.7709563 0.2866309 
0.97504336 0.21141063 -0.06779369 
0.4898828 0.8607469 -0.13830966 
0.2129796 0.97653306 -0.031983636 
0.13369259 0.9857862 0.1017448 
0.1947248 0.9740702 0.11519325 
0.3025245 0.9316495 0.20126632 
0.19726336 0.77263606 0.6034243 
-0.06775838 -0.9560525 0.2852587 
0.0948895 -0.98379385 0.15213722 
0.070370056 -0.9759992 0.20609176 
-0.65069175 -0.5260687 0.5475874 
-0.85204345 0.23233262 0.46908796 
-0.50209427 0.86145216 -0.07616766 
-0.44483456 0.88759506 -0.11957148 
-0.5651269 0.8093384 -0.16000898 
-0.661687 0.7449794 -0.08471229 
-0.6538256 0.74903464 0.10704832 
-0.6650226 0.70060325 0.2586506 
-0.87397724 0.46518123 0.1406066 
-0.6278096 -0.7678673 -0.12741663 
-0.36784622 -0.9012513 -0.22898757 
-0.46649674 -0.75618225 -0.45887828 
-0.87837416 0.35527673 -0.3197459 
-0.36676958 0.90040475 -0.2339904 
-0.28642097 0.94906074 -0.13132732 
-0.3743502 0.91043234 -0.17599706 
-0.767672 0.58634686 -0.2586063 
-0.9042226 -0.41944683 -0.080287084 
-0.6017147 -0.7904761 -0.114398785 
-0.14338687 -0.97633713 0.16188292 
0.26354638 -0.9329176 0.2453735 
0.4037987 -0.8715687 0.27805504 
0.8045611 -0.4585747 -0.377347 
0.31802028 0.94525135 -0.073233396 
0.035083085 0.9991466 0.021803003 
0.049564183 0.9885505 0.14251842 
0.1788463 0.95774764 0.22524089 
0.39568314 0.8794085 0.2647184 
0.5669284 0.7023294 0.4304947 
0.42521542 -0.90452224 -0.032115523 
0.34003586 -0.9382957 -0.06306104 
0.25638995 -0.9652791 0.05000591 
-0.5017937 -0.6236496 0.59938663 
-0.75409424 -0.027147852 0.65620494 
-0.367769 0.92911226 -0.03868278 
-0.23736823 0.94819593 -0.21114196 
-0.3250839 0.91499263 -0.23897505 
-0.4867079 0.86392045 -0.1294481 
-0.48548996 0.87399 0.02100331 
-0.45766053 0.88912123 0.003234514 
-0.7244304 0.6480065 -0.23513444 
-0.61094123 -0.7894188 -0.059739076 
-0.42160657 -0.8967247 -0.1346584 
-0.60096586 -0.75820196 -0.25292253 
-0.967735 0.22827226 -0.106681444 
-0.540283 0.8323858 -0.12340309 
-0.37194115 0.924246 -0.08619285 
-0.41075704 0.88288856 -0.2275666 
-0.8893665 0.31584904 -0.33055517 
-0.8166453 -0.4993904 0.28930905 
-0.6055333 -0.79572374 0.012373471 
-0.34833303 -0.9363775 0.04314283 
-0.09798282 -0.94275725 0.31876042 
0.17891738 -0.89978075 0.397974 
0.6023042 -0.5657209 -0.5631959 
-0.3642014 0.8841694 0.29257798 
-0.24229144 0.9428257 0.228855 
-0.06884306 0.9698855 0.23362961 
0.106092 0.9694917 0.22097604 
0.34670073 0.9251005 0.15487996 
0.5592109 0.828913 -0.013659291 
0.88212746 -0.12236573 -0.4548382 
0.7752329 -0.50973904 -0.37306872 
0.6121753 -0.7899641 -0.034615275 
-0.033154752 -0.8957015 0.44341794 
0.111233145 -0.27780575 0.9541757 
-0.026446179 0.9937409 0.10853418 
-0.06280656 0.9858162 -0.15563366 
-0.14564264 0.98137116 -0.12529545 
-0.23976697 0.96726054 -0.08318032 
-0.20786072 0.9763442 -0.0595486 
-0.24249963 0.96027684 -0.13806717 
-0.48734847 0.71339065 -0.5035526 
-0.5627145 -0.7430029 -0.36235216 
-0.48476556 -0.79919666 -0.35536882 
-0.7416345 -0.57687145 -0.3423415 
-0.9040632 0.4249369 -0.04580845 
-0.45969468 0.8867448 -0.048624713 
-0.22455603 0.9743761 -0.012876025 
-0.18458135 0.98098755 -0.059942696 
-0.5168703 0.795015 -0.3174845 
-0.7565362 -0.20534712 -0.62087494 
-0.7769198 -0.5429451 -0.31875774 
-0.525395 -0.8448721 -0.10075344 
-0.24406227 -0.8750083 0.418084 
-0.030530637 -0.99816924 -0.05221353 
-0.057733625 -0.18355468 -0.9813127 
-0.457314 0.8860925 0.07552473 
-0.2517196 0.9499254 0.18514575 
-0.07025162 0.97961116 0.1882201 
0.07786959 0.98737985 0.13790391 
0.25253567 0.9672522 -0.025475869 
0.259404 0.9380907 -0.22955509 
0.46502256 0.8673334 -0.17744508 
0.6458674 0.76057607 -0.0661763 
0.5621853 0.81482434 0.14145346 
0.2533236 -0.9569459 0.1417103 
0.9521453 -0.17226565 0.2524755 
0.21304937 0.9744013 0.07177939 
0.004851205 0.999824 -0.018124335 
-0.09354453 0.99538904 0.021216916 
-0.14230092 0.9881349 -0.057791602 
-0.08762266 0.9842312 -0.15365967 
-0.2108494 0.95665073 -0.20090283 
-0.36524782 0.8359178 -0.40967742 
-0.42744476 0.39922854 -0.81111515 
-0.41408 0.34146634 -0.84376454 
-0.64466834 0.51061916 -0.56892073 
-0.4355561 0.889602 -0.13747434 
-0.13861197 0.9895706 -0.03920268 
-0.04107492 0.99871004 0.029853972 
-0.06591545 0.9922097 0.10571338 
-0.2185391 0.97527385 0.032888606 
-0.3832921 0.92121434 -0.06671854 
-0.5310821 0.82212526 0.20509 
-0.55654055 0.5887703 0.5861844 
0.64847517 0.15898015 0.74444973 
0.27282465 0.8705536 -0.40951583 
0.28846204 0.5977582 -0.7479806 
0.1233315 0.96208125 -0.24328831 
0.16273414 0.9866403 -0.0076514794 
0.14024395 0.9827193 0.120807916 
0.066219024 0.98331594 0.16942519 
0.15621626 0.9875105 0.020485282 
0.15495202 0.98131263 -0.114085816 
0.108853966 0.99373204 0.02544596 
0.10427469 0.9876205 0.11718658 
0.0757913 0.9798828 0.18462269 
0.07732516 -0.9804964 0.18068679 
-0.050065663 0.96057814 -0.27346498 
-0.05605592 0.998242 -0.01925269 
-0.060159035 0.9954048 0.074499466 
-0.06558593 0.9909897 0.116782464 
-0.08767028 0.99572927 -0.028933134 
-0.030447533 0.9919286 -0.12308826 
-0.07201739 0.9903353 -0.11853142 
-0.14187424 0.9744139 -0.17432523 
-0.16583173 0.91962343 -0.35607967 
-0.21273705 0.8556854 -0.47174743 
-0.3499081 0.84922427 -0.3954525 
-0.21109107 0.9720636 -0.10263045 
-0.02301477 0.998224 0.054947123 
0.034181505 0.99591 0.08363652 
0.016584469 0.995412 0.09423435 
-0.107388094 0.9914583 0.074016504 
-0.21969177 0.97299665 0.07080386 
-0.37442017 0.91229284 0.16592553 
-0.47673562 0.82471406 0.30425304 
-0.072561145 0.8799459 0.46950006 
0.057778314 0.99584156 -0.07043718 
0.3475389 0.9260029 -0.14742902 
0.28600186 0.95599896 0.0653371 
0.24485162 0.9655828 0.08773581 
0.06312662 0.9875912 0.14380063 
-0.030339226 0.99651676 0.07767806 
0.11383955 0.9928283 -0.036506332 
0.11876095 0.99291825 0.003051821 
-0.059997622 0.99719757 0.044690862 
-0.10030353 0.99051803 0.09387888 
-0.13309845 0.984518 0.114057854 
-0.10928015 -0.9789983 0.17210557 
-0.4653264 0.8745449 -0.13653813 
-0.2205024 0.97479934 0.033839162 
-0.10081532 0.98588914 0.13363759 
0.021267604 0.9806893 0.19441229 
0.025039773 0.99877805 0.042609565 
0.042292915 0.9967279 -0.06888326 
0.02836844 0.99801576 -0.056212854 
-0.098336026 0.99496114 -0.01955388 
-0.1268027 0.9914677 -0.030213073 
-0.15070598 0.9718147 -0.1812841 
-0.23012471 0.94529086 -0.23123105 
-0.19407798 0.9785597 -0.06895439 
-0.06172941 0.99148583 0.11465339 
0.0063150045 0.99035585 0.1384039 
0.07086508 0.99145263 0.1095442 
0.015828282 0.99333286 0.11419011 
-0.07121016 0.97784173 0.19686215 
-0.21927908 0.9702124 0.102978826 
-0.40071726 0.91446036 -0.056462925 
-0.3113734 0.9483226 -0.06108228 
-0.17078568 0.9640191 -0.20371382 
0.10845874 0.98976266 -0.09277194 
0.17289613 0.98400396 -0.042931523 
0.2163276 0.97464126 -0.0572429 
0.113003045 0.99262124 0.043970235 
0.08469129 0.9959862 -0.02896156 
0.12961343 0.98878515 -0.07419145 
0.04402701 0.9981401 0.042167168 
-0.10586891 0.9924799 0.061443716 
-0.101877734 0.9915725 0.08003058 
-0.15111467 0.9870792 0.053282607 
-0.6012072 -0.5546732 0.5752284 
-0.5255712 0.81286806 0.25103882 
-0.2728306 0.95026445 0.15020312 
-0.15844612 0.97181714 0.17454618 
0.062404122 0.9545719 0.29137325 
0.15424956 0.9628235 0.22176133 
0.1264768 0.98643726 0.104619965 
0.16038197 0.98252714 0.09443575 
0.055901174 0.99637324 0.06415202 
0.0020490843 0.9859308 0.16714211 
-0.0014140216 0.9972645 0.073902205 
-0.016891003 0.9992946 -0.033543807 
0.055305753 0.99781877 -0.036040798 
0.15758847 0.9874936 -0.004737733 
0.10576597 0.9940884 0.024536006 
0.10689792 0.99162245 0.0725105 
0.101040356 0.9827544 0.15487012 
0.105717875 0.97068954 0.21583703 
0.058113623 0.9964943 -0.060182914 
-0.26165745 0.8911879 -0.37056643 
-0.4610486 0.8395201 -0.28747216 