# OOMMF OVF 2.0
# Segment count: 1
# Begin: Segment
# Begin: Header
# Title: m
# meshtype: rectangular
# meshunit: m
# xmin: 0
# ymin: 0
# zmin: 0
# xmax: 1.6e-07
# ymax: 1.6e-07
# zmax: 5e-09
# valuedim: 3
# valuelabels: m_x m_y m_z
# valueunits: 1 1 1
# Desc: Total simulation time:  5.227487137352614e-11  s
# xbase: 2.5e-09
# ybase: 2.5e-09
# zbase: 2.5e-09
# xnodes: 32
# ynodes: 32
# znodes: 1
# xstepsize: 5e-09
# ystepsize: 5e-09
# zstepsize: 5e-09
# End: Header
# Begin: Data Text
0.15429747 -0.9818202 -0.11055057 
0.17328487 -0.9763161 -0.12953517 
0.028122034 -0.99776495 0.06061579 
-0.16454071 -0.986216 0.01744806 
-0.2892382 -0.9528635 -0.0916102 
-0.57726926 -0.80506235 -0.1365101 
0.30007902 0.9273976 -0.22335227 
0.24694659 0.9120239 -0.3274596 
0.25253806 0.8955425 -0.36637163 
0.69534206 0.5429033 -0.47090933 
0.40124518 -0.33693856 -0.851748 
0.055427365 -0.7622238 -0.64493626 
-0.065458916 -0.4776183 -0.8761256 
-0.19712034 0.59187925 -0.78155136 
0.04158198 0.87963635 -0.47382584 
0.18082501 0.9771341 -0.111854136 
0.19152474 0.9680417 -0.16190587 
0.11607077 0.87058276 -0.47813508 
-0.22789447 0.7553464 -0.6144232 
-0.08554442 0.8023311 -0.5907174 
0.12635356 0.6936294 -0.70916367 
0.19472188 0.43709674 -0.87808317 
0.36403117 0.1537201 -0.918614 
0.07464052 -0.7723653 -0.6307778 
0.13756548 -0.88526106 -0.44428456 
0.21608861 -0.9306793 -0.29519778 
0.3283265 -0.8905627 -0.31480148 
0.54848206 0.21123923 -0.8090399 
0.20821528 0.8598521 -0.46615544 
0.14757985 0.98379546 -0.10181701 
0.104186386 0.9879584 0.114383265 
0.020645756 0.95211965 0.30502793 
0.21588612 -0.9677734 -0.12964603 
0.14604494 -0.9819333 -0.12032409 
0.009113357 -0.9995312 -0.029228512 
-0.181271 -0.9744625 -0.13252844 
-0.40546513 -0.914092 0.005833544 
-0.8543558 -0.4402859 0.276088 
-0.3340684 0.94227004 -0.02292849 
-0.088774435 0.9791018 -0.18297218 
0.09059787 0.96191263 -0.25790733 
0.46987638 0.77067524 -0.43043682 
0.3238967 0.42955208 -0.8429567 
0.24879296 -0.15458636 -0.9561408 
0.17823477 0.2604055 -0.9489054 
0.1529534 0.8014898 -0.57811725 
0.18697424 0.928113 -0.32194257 
0.10932217 0.9833243 -0.14533423 
0.09530763 0.972829 -0.21099852 
0.071880944 0.92012864 -0.38496304 
-0.1826166 0.8558649 -0.48388705 
-0.16867387 0.864734 -0.4730585 
-0.14074324 0.8171979 -0.55890864 
0.03832459 0.7477526 -0.6628705 
0.26270595 0.37392873 -0.8894735 
-0.11146771 -0.59246385 -0.79784805 
-0.0373156 -0.6914544 -0.7214558 
0.08043696 -0.7504505 -0.65601385 
0.34126413 -0.7737636 -0.53369343 
0.5053246 0.43027756 -0.7480029 
0.08867919 0.9327257 -0.34951228 
-0.021043502 0.99050474 -0.13585839 
-0.04601976 0.99887335 0.01158981 
-0.09424097 0.9846886 0.14665318 
0.44589436 -0.86967856 -0.21174847 
0.2154307 -0.96411633 -0.15514293 
-0.012219301 -0.97946316 -0.20125313 
-0.22500612 -0.82466656 -0.5189386 
-0.6362839 -0.76517904 -0.098204166 
-0.9000237 0.23463574 0.36729202 
-0.4049511 0.91312945 -0.04700367 
-0.16635948 0.9756202 -0.14314254 
0.012072032 0.9831754 -0.18226494 
0.24808678 0.9279393 -0.2781755 
0.07607803 0.81064594 -0.58057326 
0.107506774 0.40788627 -0.90668136 
0.038070105 0.72390276 -0.68885094 
0.09954018 0.92451924 -0.36790764 
0.10524642 0.96021503 -0.25867012 
0.08377386 0.981801 -0.17043707 
0.12552074 0.9810382 -0.1476777 
0.100616224 0.9714956 -0.21464562 
-0.021109547 0.9563131 -0.29158163 
-0.02085001 0.9474702 -0.3191641 
-0.0248006 0.9257588 -0.3773004 
0.06237037 0.91530406 -0.39790514 
0.15305099 0.8448213 -0.51269144 
0.05487949 0.67986923 -0.73127705 
-0.17778218 0.61219436 -0.770462 
-0.3767839 0.368201 -0.84997755 
0.022335326 0.59496963 -0.8034379 
0.07736204 0.8353533 -0.54424256 
-0.025999365 0.95732206 -0.28785178 
0.0033949786 0.99710196 -0.076002136 
0.062263176 0.9908397 0.119833805 
0.051157217 0.95621496 0.28815952 
0.3394578 0.8536339 -0.3950667 
0.15437593 0.94132745 -0.3001181 
-0.23309004 0.8946852 -0.381061 
-0.45534414 0.79594463 -0.39891595 
-0.7721916 0.6219811 -0.12984456 
-0.534763 0.84102464 0.08189018 
-0.18858173 0.98170316 -0.026379455 
-0.018174239 0.9988953 -0.043335263 
0.043579835 0.9971827 -0.061053723 
0.05056987 0.98857266 -0.14201036 
0.028510148 0.8457037 -0.5328906 
0.24456143 0.6119553 -0.75213057 
0.12713903 0.85475147 -0.5032253 
0.09887317 0.96416306 -0.2461988 
0.05325263 0.9736706 -0.22165231 
0.06666377 0.9837144 -0.16691914 
0.15674718 0.9793308 -0.12783395 
0.100312494 0.9867766 -0.12731677 
0.036139995 0.9898545 -0.13741153 
0.03242632 0.98731005 -0.15545838 
0.06828764 0.99004424 -0.123082444 
0.12066036 0.98419523 -0.12961863 
0.1671437 0.96554357 -0.1994709 
0.099142894 0.96415347 -0.24612756 
-0.061604634 0.97485304 -0.21416436 
-0.33511877 0.92659533 -0.17063552 
-0.35369268 0.9233547 -0.1493913 
-0.23250458 0.9626291 -0.13887745 
-0.046857286 0.9988081 0.013667205 
0.1347885 0.972046 0.19224657 
0.25097528 0.9248969 0.28561726 
0.22743571 0.9090194 0.34922302 
0.1302854 0.99080944 -0.036365535 
0.06909066 0.99656403 -0.04568131 
-0.060537696 0.9946279 -0.08396825 
-0.21481177 0.96902406 -0.12185403 
-0.3328501 0.93707544 -0.10535896 
-0.20309272 0.97848433 -0.036356166 
-0.07970069 0.9967991 -0.0062826835 
-0.03743533 0.9992842 0.0054478333 
-0.1301417 0.99139863 -0.013854593 
-0.14289725 0.98738796 -0.06815821 
0.106897816 0.9568683 -0.27014065 
0.2808118 0.9173161 -0.28226933 
0.16705361 0.9713051 -0.1692916 
0.11840148 0.99122787 -0.05872327 
0.029047783 0.99604696 -0.08394496 
0.020243678 0.9970236 -0.07439295 
0.14070249 0.9854671 -0.095171236 
0.09660975 0.9834464 -0.15329637 
0.061967384 0.9838714 -0.16780123 
-0.029439695 0.9789449 -0.2019907 
-0.1121783 0.99016666 -0.08358303 
-0.014685937 0.99916816 -0.038043797 
0.09227284 0.9943477 -0.05252119 
0.06417303 0.9965664 -0.052318603 
-0.07456264 0.99663395 -0.034078736 
-0.17496735 0.9838069 0.038863994 
-0.27968013 0.95854187 0.05455796 
-0.19617948 0.9796631 0.04211677 
0.03912925 0.97997534 0.19523647 
0.27964178 0.9187389 0.27878186 
0.3640763 0.90796113 0.20749715 
0.3056223 0.9275225 0.21516763 
0.032797374 0.99864507 0.040402863 
-0.012766767 0.9992003 0.037892338 
-0.0043367236 0.9975094 0.07040068 
0.0133629665 0.9999055 0.0032118277 
-0.0036820155 0.9969884 -0.07746409 
-0.0003060222 0.995662 -0.09304369 
-0.033139415 0.9978114 -0.057222325 
-0.07735453 0.99519074 -0.060098365 
-0.24006884 0.9702901 -0.030066522 
-0.15083703 0.9875995 0.043537345 
0.09901414 0.9948757 0.02045848 
0.16218965 0.9867541 0.0032894257 
0.09877587 0.9947542 -0.026596133 
0.020926751 0.9997607 0.006390681 
-0.08797759 0.9958202 0.024534939 
-0.070682704 0.994844 0.072728865 
0.054214187 0.9966487 0.0612565 
0.026532745 0.99854493 -0.046947397 
-0.008264688 0.99210054 -0.1251731 
-0.14384003 0.95790386 -0.24845584 
-0.2813295 0.93080026 -0.23337664 
-0.10944194 0.98749524 -0.11347098 
0.10401706 0.9915536 -0.07747314 
0.075268894 0.9956956 -0.054082137 
0.0001763344 0.99783427 -0.06577864 
-0.08398445 0.9928646 0.08465537 
-0.15871397 0.9802932 0.11762296 
-0.055264007 0.98350495 0.17223246 
0.13114043 0.9641315 0.2307657 
0.4102231 0.90653974 0.09951219 
0.42129448 0.90656006 -0.025689635 
0.3352237 0.938342 0.084494926 
0.051032025 0.99816805 0.032501854 
-0.11246891 0.992766 -0.042028036 
-0.029511627 0.99956405 -0.0009338055 
0.1143434 0.9919553 -0.054316737 
0.07786766 0.9908894 -0.10988619 
0.024351459 0.9955736 -0.09077666 
-0.05566738 0.9951953 -0.08054448 
-0.1115649 0.98861665 -0.10094853 
-0.2513923 0.9674575 -0.028776871 
-0.14100005 0.97304094 0.18251148 
-0.007934127 0.97585213 0.21828818 
0.038839202 0.99370956 0.10503748 
0.043715883 0.9989565 -0.0132201165 
-0.034070283 0.99938685 0.008074447 
-0.07355539 0.99236 0.099052615 
-0.017416215 0.9877024 0.1553728 
0.056638956 0.9868489 0.15139769 
0.0063457405 0.99981064 0.01839946 
-0.10601533 0.9942974 -0.01155236 
-0.24711055 0.96763676 -0.051141966 
-0.26798397 0.95195776 -0.1481924 
-0.15254301 0.9793047 -0.13301553 
0.043453332 0.998422 -0.03557043 
-0.00095111004 0.99986583 0.016355956 
-0.06197384 0.99745136 0.035355844 
-0.16945384 0.96325564 0.20838436 
-0.10960345 0.96630085 0.232916 
0.01904093 0.9464533 0.32227877 
0.183686 0.96476746 0.18837017 
0.53713876 0.8419642 -0.050776955 
0.755291 0.632521 -0.17161848 
0.84949565 0.49206227 -0.19034697 
-0.144445 0.9888913 -0.03506872 
-0.28041956 0.95756286 -0.06662094 
-0.13011192 0.9914829 0.0057070907 
0.05841738 0.99388635 0.093687624 
-0.0146380095 0.9945889 0.10285312 
-0.067655675 0.99293447 0.09748752 
-0.094726965 0.9945907 -0.04261835 
-0.057050303 0.99567544 -0.07331992 
-0.084455535 0.9960386 0.027828375 
0.012244756 0.96132123 0.2751576 
0.08437382 0.9414917 0.3263041 
0.12517144 0.9646899 0.23174427 
0.08167797 0.989468 0.119507104 
0.014229747 0.9887622 0.14881822 
0.11047847 0.950023 0.29197776 
0.17536928 0.9398492 0.29313684 
0.21501061 0.9560625 0.1992863 
0.11866331 0.9914085 0.0550286 
-0.05723037 0.99819565 -0.018172005 
-0.31017172 0.9489702 -0.0570012 
-0.41174 0.8983031 -0.15336855 
-0.39371255 0.8724474 -0.28952736 
-0.20598194 0.970674 -0.123950124 
-0.17018266 0.9852552 -0.017611235 
-0.20348775 0.97858864 -0.030936899 
-0.25691587 0.96625113 0.018787444 
-0.105680525 0.99208355 0.067837924 
-0.09054978 0.97432655 0.20612784 
-0.021264836 0.9941761 0.10564882 
0.3944418 0.91881984 0.01363598 
0.8389067 0.5351394 -0.09930501 
0.92324245 0.3610606 -0.13137224 
-0.5309283 0.8358363 -0.13961643 
-0.34037936 0.93516576 -0.09801471 
-0.052268866 0.9954559 0.079596706 
0.098870374 0.9634158 0.24910769 
-0.048616935 0.96885645 0.24280353 
-0.19309735 0.9510975 0.24109551 
-0.13885044 0.9841362 0.11043762 
0.07501801 0.9931686 0.0893781 
0.16122177 0.97822136 0.1307307 
0.2723347 0.9096349 0.31368485 
0.30584764 0.8088029 0.50229 
0.3490589 0.7521629 0.5589357 
0.081382975 0.79160744 0.60558605 
-0.11047215 0.8040992 0.5841407 
0.12430027 0.77086544 0.6247529 
0.2355035 0.9086818 0.34472525 
0.253666 0.9612069 0.10832806 
0.10178479 0.99370366 0.0468293 
-0.06321695 0.99799985 6.979653e-05 
-0.39193934 0.9188495 -0.045815807 
-0.69033265 0.6725368 -0.26671168 
-0.7735845 0.26692235 -0.57473433 
-0.70150065 0.5402486 -0.46478856 
-0.49515426 0.8447534 -0.20301262 
-0.3959264 0.9055762 -0.15223032 
-0.33936957 0.93868434 -0.060828447 
-0.1635521 0.97815925 0.12827785 
-0.14049558 0.95289975 0.26878062 
0.056633107 0.9751934 0.21398768 
0.575308 0.8167825 0.043442197 
0.9368404 0.33606026 -0.09692148 
0.9459367 0.32118052 0.04524237 
-0.99327236 0.080911905 0.082845174 
-0.6346654 0.75965714 -0.1418483 
-0.2001919 0.9766245 -0.07828137 
0.004683974 0.9979178 0.064328484 
-0.07517887 0.99524635 0.06190928 
-0.17287496 0.96790767 0.18239805 
-0.11108622 0.9676087 0.226701 
0.08834347 0.96438366 0.24931835 
0.21005659 0.92723286 0.31002483 
0.4324369 0.50681514 0.7457458 
0.41613227 -0.37628233 0.8277956 
0.355861 -0.8395214 0.41056904 
0.34452304 -0.89368695 0.28745 
0.30375698 -0.83365715 0.46124548 
0.5620036 -0.26814094 0.78246564 
0.4304461 0.8584635 0.27884907 
0.24505615 0.96879095 0.03730522 
0.07435844 0.99722683 -0.0030819604 
-0.177245 0.97784567 0.111365214 
-0.6761231 0.6126782 0.40924707 
-0.9253209 -0.23231187 0.2996871 
-0.8025694 -0.5785538 -0.14545768 
-0.8811576 -0.32927144 -0.33932528 
-0.7497059 0.62875104 -0.20642962 
-0.40703887 0.9066117 -0.11124154 
-0.28971407 0.9553414 -0.05821238 
-0.19550712 0.98039716 0.024463588 
-0.22334196 0.9727339 0.06250677 
-0.14829335 0.9811844 0.12363739 
0.21445565 0.9482559 0.23413594 
0.59524775 0.39877236 0.6976108 
0.4172775 0.1008429 0.9031668 
-0.68776155 -0.50400233 0.5224613 
-0.9259491 -0.2105518 0.3135064 
-0.84824216 0.513133 -0.13107237 
-0.33471963 0.9421263 0.019000258 
-0.18401238 0.9818751 0.045395788 
-0.1914009 0.9773137 0.09068443 
-0.13335142 0.9748014 0.17882848 
0.011680573 0.9613487 0.27508605 
0.15703471 0.85117066 0.500848 
0.44058722 -0.14157946 0.88647527 
0.41956252 -0.7276949 0.5426118 
0.3334878 -0.9397073 0.07573807 
0.3052929 -0.95223707 0.0063827094 
0.3745953 -0.92543465 -0.057000365 
0.71731853 -0.64753497 -0.25720176 
0.47916064 0.87772375 -0.002478963 
0.12555403 0.99155784 0.032393906 
-0.15182716 0.9874676 -0.04308533 
-0.5264367 0.84853005 0.05349155 
-0.9494207 -0.29506224 0.10741821 
-0.6873861 -0.7179292 0.10990029 
-0.6569976 -0.7516024 -0.05872062 
-0.9065781 -0.42173356 -0.016031705 
-0.73313105 0.63918346 0.2323005 
-0.31515768 0.94076914 0.1250167 
-0.2438959 0.96729696 0.06965339 
-0.23901163 0.96987724 0.04702785 
-0.24959679 0.9648532 0.08221723 
-0.2444773 0.9558957 0.16277052 
-0.0058479616 0.9391117 0.34356222 
0.45462352 0.042033236 0.88969135 
0.32845655 -0.2067946 0.92160314 
-0.29803246 -0.89195734 0.33998355 
-0.5004541 -0.8136338 0.29588124 
-0.9055773 -0.42415023 -0.0051284153 
-0.513219 0.8576113 0.03330465 
-0.1520607 0.98233914 0.10902999 
-0.13182731 0.98437494 0.11673735 
-0.15872598 0.9772445 0.14071001 
-0.015820691 0.9865102 0.16293348 
0.16709672 0.91611505 0.36443368 
0.6021191 -0.21956716 0.7676215 
0.37677747 -0.9009662 0.21517135 
0.3085301 -0.9461392 -0.09813217 
0.32987428 -0.94337255 -0.035088502 
0.4853188 -0.8648346 -0.12855633 
0.7213846 -0.25288808 -0.6447107 
0.16905285 0.9219262 -0.34853023 
0.01122564 0.996968 -0.07700053 
-0.24849582 0.9685728 -0.010796872 
-0.5407785 0.8406152 0.030410549 
-0.97625524 -0.20494594 -0.07016439 
-0.7765833 -0.6250285 -0.07910693 
-0.7284441 -0.67989385 -0.08434232 
-0.9415746 -0.32165796 0.09986758 
-0.6899996 0.6862021 0.2302766 
-0.21923538 0.96750057 0.12600987 
-0.077765934 0.993784 0.079661496 
-0.11240948 0.9905976 0.07797775 
-0.21213941 0.96579355 0.14913017 
-0.36885604 0.8996418 0.2336448 
-0.48844966 0.77042663 0.40970698 
-0.43111587 -0.58740544 0.68490434 
-0.24693123 -0.7634086 0.59685194 
-0.046673283 -0.938821 0.34122825 
-0.20004632 -0.91663295 0.34607184 
-0.5471638 -0.8349967 0.05824446 
-0.83599174 0.5484784 0.017009927 
-0.4491907 0.8889464 0.08945467 
-0.39279944 0.9196177 0.0034420427 
-0.31975052 0.947176 0.024844943 
-0.119781025 0.9798632 0.1597517 
0.020935247 0.9074668 0.41960183 
0.310147 -0.043532856 0.9496915 
0.12697686 -0.9851268 0.11576756 
0.08926746 -0.97864217 -0.1851782 
0.082205266 -0.986023 -0.14491718 
0.14135209 -0.8862125 -0.44118834 
0.10151397 0.22334735 -0.96943843 
-0.07220924 0.88004714 -0.46936432 
-0.00028928128 0.98991245 -0.14168033 
-0.094187655 0.99458027 0.044031072 
-0.27807623 0.9584604 0.06346187 
-0.84082377 0.5410217 -0.017636988 
-0.96698016 0.048047125 -0.25028145 
-0.95934665 -0.105564 -0.26174492 
-0.9898804 0.14186873 0.0031912066 
-0.738415 0.6608133 0.13442157 
-0.3594789 0.9270015 0.10697324 
-0.0979221 0.992231 0.07673939 
-0.07309467 0.9951095 0.06644091 
-0.21119323 0.97434205 0.07781468 
-0.42273957 0.8986861 0.11685348 
-0.76853156 0.62767327 0.12403833 
-0.7830559 -0.38882744 0.4854244 
-0.48978585 -0.73938656 0.4619712 
0.023493143 -0.9800121 0.19754577 
-0.1783438 -0.96801645 0.17645907 
-0.65115714 -0.7522776 0.10036288 
-0.7613727 0.64194477 0.090657346 
-0.44503364 0.8945782 0.0409251 
-0.35578993 0.93031627 -0.089023106 
-0.3339288 0.94164234 -0.04244113 
-0.22712463 0.97158325 0.06663738 
-0.22086158 0.9647421 0.14315283 
-0.483204 0.8074466 0.3384437 
-0.24181738 -0.9570529 -0.15991986 
-0.24370785 -0.833494 -0.4958772 
-0.34481984 -0.76541 -0.5433662 
-0.36679435 -0.3996362 -0.840091 
-0.10817757 0.782648 -0.61299247 
-0.03663403 0.9719863 -0.23216529 
0.042757913 0.9985099 -0.033907726 
0.031724226 0.9989716 0.032395095 
-0.08136081 0.9948489 0.060467042 
-0.28186005 0.9564418 0.075987324 
-0.53063697 0.8399782 -0.113407016 
-0.52643114 0.83033234 -0.18280719 
-0.5204909 0.85265034 -0.04557168 
-0.42518866 0.90469706 -0.02716261 
-0.28902087 0.95724404 -0.012284418 
-0.11386844 0.9934925 -0.0025773633 
-0.06447165 0.9978973 0.0066726906 
-0.15163991 0.98811764 0.025077725 
-0.43962657 0.8961068 0.061000794 
-0.99425584 0.024796424 -0.10411776 
-0.55140567 -0.7707997 0.3190918 
-0.25615242 -0.9444597 0.20586866 
-0.16585518 -0.98603386 -0.015142511 
-0.29846185 -0.954215 0.019855633 
-0.767609 -0.6142354 0.18300651 
-0.5137695 0.85072446 -0.11094569 
-0.2646991 0.96264344 -0.057026792 
-0.21991828 0.97255296 -0.07600447 
-0.31471905 0.9478796 -0.049761802 
-0.2231415 0.97457033 -0.020507922 
-0.19416045 0.977642 -0.080734044 
-0.25846174 0.9602769 -0.105194256 
-0.21293135 0.89983684 -0.3807282 
-0.2569075 0.8016349 -0.53979635 
-0.3781769 0.6917892 -0.61515045 
-0.3967374 0.6442682 -0.65384865 
-0.16738771 0.97082317 -0.17170872 
-0.096892186 0.9929705 0.067982 
0.019266741 0.9973733 0.069824256 
0.09526979 0.9952253 0.021220397 
0.060421735 0.9972501 0.042913135 
-0.055019453 0.98645836 0.15450849 
-0.2353696 0.97086877 0.04488892 
-0.1447874 0.98539716 -0.089605264 
-0.11850745 0.9901923 -0.073995195 
-0.20714094 0.97772664 -0.033814304 
-0.32271224 0.94591564 -0.033174455 
-0.26897913 0.9598044 -0.08016036 
-0.17087148 0.9843402 -0.04333059 
-0.23229982 0.9717701 -0.041227054 
-0.52953154 0.8390222 -0.12505269 
-0.58093345 -0.764255 -0.2800549 
-0.2179385 -0.9755188 0.02942454 
0.0023065477 -0.99896455 -0.045437723 
-0.25795376 -0.9622245 -0.087086774 
-0.30878413 -0.9507464 0.027085464 
-0.72175086 -0.6890003 0.06598729 
-0.39106765 0.8847617 -0.25350156 
-0.12432118 0.9875486 -0.096395895 
-0.123442896 0.9919865 -0.02691814 
-0.28776997 0.95746577 0.021164754 
-0.17563722 0.9812407 0.07948832 
-0.066378586 0.99774116 0.010322214 
0.012744349 0.9992825 -0.035667207 
0.077270314 0.9941195 -0.07586726 
-0.068396635 0.99722475 -0.029406574 
-0.16304377 0.98661834 -0.0009822226 
-0.16800717 0.98036623 -0.10322735 
-0.06521864 0.99727565 0.034465797 
-0.0074982336 0.9960678 0.08827654 
0.061647717 0.996305 0.05980013 
0.10840894 0.9940632 0.009278178 
0.038371764 0.9983238 0.043328296 
-0.004331269 0.98555523 0.16929883 
-0.019329716 0.9918151 0.12621078 
0.099839255 0.99498385 -0.0062782494 
0.055845506 0.9968874 -0.055649124 
-0.061489355 0.99809986 -0.0039737527 
-0.25469333 0.9639306 0.07725989 
-0.34522992 0.9384533 -0.0110393725 
-0.20934199 0.97717184 -0.036209956 
-0.1961069 0.97648335 -0.08956772 
-0.44111192 0.85287285 -0.27933532 
-0.38571873 -0.90134263 -0.19698353 
-0.14483087 -0.98890716 0.03296715 
-0.08460189 -0.9938736 -0.07111845 
-0.08469448 -0.9938606 -0.07119045 
-0.14478743 -0.9889145 0.032935616 
-0.38571107 -0.90135163 -0.19695754 
-0.44103223 0.85291535 -0.27933148 
-0.19650462 0.9763582 -0.09005965 
-0.21069998 0.97687936 -0.036226377 
-0.34552446 0.9383649 -0.00918043 
-0.25210136 0.9645127 0.07848638 
-0.059194393 0.9982321 -0.0053569586 
0.057217717 0.99671096 -0.05738877 
0.10100401 0.994851 -0.008354897 
-0.017401004 0.99190784 0.1257621 
-0.0031910676 0.98533094 0.17062502 
0.038517024 0.99824756 0.04492499 
0.108201444 0.99409515 0.008213393 
0.061584536 0.99633765 0.059318185 
-0.008546142 0.9959812 0.08915435 
-0.064094074 0.997341 0.03468432 
-0.1678325 0.98019594 -0.10511092 
-0.16529588 0.9862417 -0.002133276 
-0.070479214 0.99716467 -0.026371619 
0.07718004 0.9943462 -0.07293124 
0.013895863 0.9993129 -0.034360643 
-0.06567227 0.9977657 0.012282386 
-0.17698854 0.98091793 0.080468096 
-0.28805715 0.95739114 0.020623408 
-0.12262609 0.9920943 -0.02668169 
-0.124226116 0.9876113 -0.09587365 
-0.39150137 0.884567 -0.253511 
-0.72183245 -0.6889114 0.06602302 
-0.30879885 -0.95073855 0.027193164 
-0.25779644 -0.9622666 -0.08708554 
0.0023053114 -0.9989655 -0.04541767 
-0.21792744 -0.9755233 0.029359868 
-0.5809706 -0.764146 -0.28027537 
-0.5295959 0.83903015 -0.124726355 
-0.23224543 0.97176707 -0.0416048 
-0.17171729 0.98417276 -0.043785866 
-0.26993805 0.9596417 -0.078875504 
-0.32168612 0.9463359 -0.031088779 
-0.20529453 0.9781396 -0.03312296 
-0.116921864 0.99042016 -0.07346623 
-0.14275819 0.9857178 -0.08933503 
-0.2338267 0.97121507 0.04545723 
-0.053940818 0.9864328 0.15505077 
0.06031329 0.9972716 0.042563595 
0.094350934 0.9953425 0.019782182 
0.018334398 0.99735296 0.07036363 
-0.09679435 0.9928698 0.06957322 
-0.1652601 0.97145426 -0.17019336 
-0.3969274 0.6434181 -0.65457 
-0.38295978 0.6878215 -0.6166389 
-0.25988084 0.8039727 -0.5348738 
-0.21150257 0.9023564 -0.3755259 
-0.25711036 0.960579 -0.10574633 
-0.19294961 0.9778718 -0.080853716 
-0.22312585 0.97457 -0.020697318 
-0.3138502 0.94815063 -0.050083376 
-0.21870102 0.97288615 -0.07524994 
-0.2645405 0.9627305 -0.056286823 
-0.514372 0.85037833 -0.11080685 
-0.7677219 -0.6141203 0.18291914 
-0.29853475 -0.95419157 0.019890057 
-0.16584525 -0.9860354 -0.015151234 
-0.2560629 -0.9444723 0.20592193 
-0.55140966 -0.77083194 0.31900716 
-0.9942502 0.024690399 -0.10419767 
-0.43948162 0.8961575 0.061300837 
-0.15128407 0.9881776 0.02486469 
-0.064800225 0.99787927 0.0061684805 
-0.11459263 0.99341005 -0.0022721204 
-0.28889483 0.9572903 -0.011626742 
-0.42510337 0.9047304 -0.027387692 
-0.5212565 0.8521789 -0.04563932 
-0.52653635 0.830312 -0.18259685 
-0.53132254 0.8395666 -0.11324514 
-0.28164017 0.9565378 0.07559342 
-0.08178428 0.9948459 0.059942152 
0.031034635 0.9990086 0.03191844 
0.041840114 0.99860644 -0.032165013 
-0.036995005 0.9725805 -0.2296055 
-0.10699938 0.7859494 -0.608962 
-0.36682436 -0.39881846 -0.84046644 
-0.3438611 -0.7677062 -0.540728 
-0.24281232 -0.83769804 -0.48918718 
-0.23762079 -0.96021014 -0.14674146 
-0.48834047 0.80525905 0.33627608 
-0.22200976 0.9647986 0.14097968 
-0.227194 0.9716783 0.06499416 
-0.33284083 0.9419954 -0.043146897 
-0.35452524 0.93086237 -0.08835875 
-0.44461325 0.8947574 0.041572392 
-0.7617141 0.64153063 0.09072066 
-0.65125895 -0.75219655 0.10031098 
-0.17837866 -0.968026 0.17637116 
0.023490565 -0.980006 0.19757664 
-0.4897644 -0.73924935 0.46221355 
-0.7831224 -0.38873136 0.485394 
-0.7686643 0.6274902 0.12414206 
-0.42259377 0.89871246 0.11717672 
-0.21089476 0.97441435 0.077719405 
-0.07347608 0.9951216 0.06583574 
-0.09880922 0.99213666 0.076823436 
-0.3594387 0.9269143 0.10786038 
-0.73788375 0.6613841 0.1345315 
-0.99002385 0.14087681 0.0025521351 
-0.95946753 -0.10630753 -0.26099956 
-0.96699446 0.048200037 -0.25019726 
-0.84063214 0.5413155 -0.017759213 
-0.27813405 0.9585152 0.06237042 
-0.09440759 0.9945551 0.044128597 
-0.0018110469 0.9901872 -0.13973546 
-0.07162527 0.8815692 -0.46658945 
0.10285114 0.22622997 -0.96862876 
0.14292268 -0.88689935 -0.4392979 
0.08347638 -0.9863524 -0.1419176 
0.088091984 -0.9792719 -0.18239085 
0.12549533 -0.9849735 0.11865175 
0.30710545 -0.054965213 0.9500869 
0.01919184 0.90770406 0.41917208 
-0.11986189 0.98007476 0.15838747 
-0.31865108 0.9475544 0.024540624 
-0.3918141 0.9200354 0.004094042 
-0.44897684 0.889031 0.08968776 
-0.8361398 0.5482567 0.01688306 
-0.54735124 -0.83487725 0.05819583 
-0.20001933 -0.91663986 0.34606898 
-0.04669447 -0.93878937 0.34131253 
-0.24693511 -0.7632807 0.59701407 
-0.43118927 -0.587393 0.6848688 
-0.4887359 0.77031964 0.4095667 
-0.36903325 0.89952165 0.23382777 
-0.2120844 0.9657744 0.14933209 
-0.11217361 0.9906517 0.0776301 
-0.077825494 0.99383026 0.07902272 
-0.21963573 0.967474 0.1255167 
-0.6905924 0.6858249 0.22962229 
-0.94097716 -0.32355836 0.099358074 
-0.7276436 -0.6808286 -0.08370992 
-0.77688503 -0.6247145 -0.07862196 
-0.9763221 -0.20463945 -0.07012692 
-0.5402788 0.84091574 0.030979872 
-0.24870951 0.9685236 -0.010276584 
0.010547941 0.9968893 -0.07810561 
0.16756132 0.92180234 -0.34957635 
0.71817386 -0.256646 -0.646807 
0.48377955 -0.8656994 -0.12853768 
0.32982892 -0.94339556 -0.034897946 
0.3063922 -0.9467682 -0.0987618 
0.37456763 -0.90174973 0.21574627 
0.5984802 -0.22143513 0.7699272 
0.16628805 0.91668147 0.36337793 
-0.015257545 0.9865952 0.16247211 
-0.15818748 0.9772315 0.14140494 
-0.13172413 0.9843099 0.11740062 
-0.1523123 0.9823086 0.10895343 
-0.51335007 0.8575369 0.03319868 
-0.90578204 -0.42371356 -0.0050774403 
-0.50035095 -0.8136531 0.29600292 
-0.29800254 -0.89200634 0.33988118 
0.32839295 -0.20658244 0.9216734 
0.4543143 0.041796714 0.88986045 
-0.005817137 0.9391211 0.343537 
-0.24477851 0.9558342 0.16267867 
-0.25007176 0.96472543 0.08227419 
-0.23921505 0.9698134 0.047308583 
-0.24357545 0.96736825 0.069783926 
-0.31464246 0.9410299 0.12435024 
-0.73308486 0.6398095 0.2307173 
-0.9061308 -0.42265713 -0.016971383 
-0.65619975 -0.7522826 -0.058929764 
-0.6874544 -0.71779263 0.11036449 
-0.9497367 -0.2940898 0.107291296 
-0.52648425 0.8484491 0.05429992 
-0.15232284 0.98740107 -0.042859703 
0.12632369 0.991463 0.03230503 
0.47932622 0.8776319 -0.0029356256 
0.7115965 -0.65359426 -0.2577695 
0.37272203 -0.9261812 -0.057154577 
0.3054189 -0.9522026 0.0054457816 
0.33295882 -0.9400347 0.07398075 
0.41941613 -0.72769547 0.54272413 
0.43646228 -0.137984 0.88907886 
0.15461822 0.85205525 0.5000952 
0.01057231 0.96146935 0.27470893 
-0.13400005 0.9746715 0.17905176 
-0.19186774 0.97721434 0.09076873 
-0.18433394 0.981832 0.045020457 
-0.33465004 0.94215703 0.018698124 
-0.8480123 0.5135065 -0.13109703 
-0.92572606 -0.21080422 0.31399527 
-0.68767905 -0.504383 0.52220243 
0.4173566 0.10098354 0.9031145 
0.5951317 0.39870358 0.69774914 
0.21463874 0.94821507 0.23413348 
-0.14831802 0.9812219 0.12331015 
-0.22373147 0.9726682 0.06213695 
-0.1960499 0.98028845 0.024472639 
-0.29006904 0.9552553 -0.05785652 
-0.4069722 0.9067079 -0.11070047 
-0.7493776 0.6293318 -0.20585133 
-0.88149726 -0.32857135 -0.3391217 
-0.8027341 -0.5783194 -0.14548104 
-0.92522407 -0.23215307 0.3001091 
-0.6757293 0.6134074 0.4088049 
-0.17708203 0.97782403 0.11181254 
0.0746965 0.9972002 -0.0034925467 
0.24564965 0.96865636 0.036894254 
0.431009 0.85863256 0.27745512 
0.56234825 -0.26764783 0.78238684 
0.30651128 -0.83251286 0.46149018 
0.347429 -0.89266515 0.2871273 
0.35731426 -0.8391595 0.41004625 
0.4166729 -0.37439677 0.82837844 
0.43161932 0.5086786 0.7449503 
0.20857923 0.92759115 0.30995068 
0.08662163 0.96462786 0.24897748 
-0.11210981 0.9675661 0.22637886 
-0.17340311 0.9678723 0.18208422 
-0.07555918 0.9952459 0.061453633 
0.0047319825 0.997935 0.064057864 
-0.19979705 0.97670317 -0.078307465 
-0.6342774 0.76002634 -0.14160557 
-0.993323 0.08064223 0.082499616 
0.94591033 0.32129294 0.04499586 
0.93685895 0.33606157 -0.0967365 
0.5753824 0.8167218 0.043597195 
0.056750495 0.975212 0.21387142 
-0.14043865 0.95295364 0.26861933 
-0.16354018 0.9781824 0.12811694 
-0.33953378 0.9386158 -0.060970243 
-0.3963291 0.90540886 -0.15217835 
-0.49594286 0.84441376 -0.2024999 
-0.70238334 0.54003483 -0.46370262 
-0.77376974 0.26725298 -0.5743312 
-0.6903998 0.67240226 -0.26687703 
-0.3917547 0.9189251 -0.045881618 
-0.0630738 0.99800885 0.0004350453 
0.102577634 0.9936282 0.046700016 
0.25474185 0.9609821 0.107797146 
0.23667522 0.9087687 0.34369224 
0.12592876 0.77138394 0.62378585 
-0.10811884 0.80489194 0.58348906 
0.08213753 0.79101044 0.6062639 
0.3489274 0.74969137 0.5623278 
0.30443773 0.80790514 0.504586 
0.27063012 0.9095318 0.31545436 
0.15863071 0.9786069 0.13101545 
0.07321316 0.993396 0.088342145 
-0.13941237 0.9841353 0.10973607 
-0.19325012 0.9511496 0.2407675 
-0.048789114 0.96899796 0.24220373 
0.09879182 0.9635704 0.24854036 
-0.05192458 0.99548495 0.07945786 
-0.34012023 0.9352807 -0.09781777 
-0.53101546 0.8358301 -0.13932195 
0.9232528 0.3609746 -0.13153581 
0.8389264 0.5351211 -0.09923752 
0.39432916 0.91886866 0.013599141 
-0.021332419 0.99418175 0.10558199 
-0.09042258 0.9743281 0.20617627 
-0.10540744 0.99211246 0.06784022 
-0.25669423 0.9663142 0.018575512 
-0.20364432 0.9785432 -0.031339366 
-0.1708581 0.9851379 -0.01763398 
-0.20655745 0.9706012 -0.12356123 
-0.39363188 0.87252206 -0.28941202 
-0.4116994 0.8982692 -0.15367514 
-0.31026134 0.94894165 -0.05698927 
-0.05766862 0.9981795 -0.017668571 
0.118830286 0.9913585 0.0555673 
0.2155216 0.955862 0.19969548 
0.1760044 0.9397077 0.29320985 
0.11122862 0.95001507 0.29171833 
0.014898802 0.98882794 0.14831534 
0.08151679 0.989454 0.11973243 
0.12417217 0.96437556 0.23358339 
0.082654595 0.9411532 0.32771766 
0.0100661 0.9612403 0.2755284 
-0.08579854 0.9959578 0.026585974 
-0.05709454 0.99559385 -0.07438475 
-0.09452121 0.9945967 -0.042931013 
-0.06783534 0.9929293 0.09741547 
-0.014842012 0.9946138 0.1025815 
0.058460325 0.9939268 0.09323071 
-0.12980114 0.9915246 0.005549469 
-0.28009155 0.95766217 -0.06657357 
-0.14416167 0.98894304 -0.034772776 
0.84943193 0.49217 -0.1903526 
0.755392 0.6323838 -0.17167889 
0.53724456 0.84188646 -0.05094475 
0.18379942 0.9647835 0.18817706 
0.019089721 0.9464708 0.32222465 
-0.109457135 0.96629727 0.23299965 
-0.16914716 0.96334594 0.20821573 
-0.061923623 0.9974695 0.03493275 
-0.0011935314 0.99987 0.016084114 
0.043061234 0.99844307 -0.035457984 
-0.1523452 0.9793472 -0.13292904 
-0.2677744 0.9519912 -0.14835684 
-0.24698783 0.96764725 -0.051534817 
-0.106437586 0.9942503 -0.011720223 
0.0059642037 0.99980885 0.018619806 
0.056492027 0.98684245 0.15149485 
-0.017141141 0.9876855 0.15551116 
-0.073078506 0.9924054 0.09894956 
-0.033554167 0.9994074 0.0076812115 
0.04384225 0.99894845 -0.013412483 
0.038232576 0.9936987 0.10536164 
-0.008921078 0.97578245 0.21856137 
-0.14174917 0.9730301 0.1819884 
-0.25112107 0.9675037 -0.02957533 
-0.11114424 0.98864156 -0.10116724 
-0.055597685 0.99519914 -0.08054582 
0.024166012 0.99557215 -0.0908409 
0.07776645 0.9908799 -0.11004352 
0.11455606 0.9919188 -0.05453364 
-0.02916976 0.99957395 -0.0010076995 
-0.11222305 0.9927985 -0.041918926 
0.051170707 0.998162 0.03246923 
0.3349604 0.9384327 0.08453142 
0.42128992 0.9065649 -0.025589386 
0.41029087 0.9065167 0.09944315 
0.1311718 0.9641742 0.23056896 
-0.055349134 0.9835043 0.17220907 
-0.15857507 0.9803083 0.11768454 
-0.08371959 0.992905 0.08444285 
0.00033869367 0.9978186 -0.06601598 
0.075297385 0.99567187 -0.054477766 
0.103808984 0.9915823 -0.07738489 
-0.10925688 0.98754895 -0.11318173 
-0.2809715 0.9309786 -0.23309658 
-0.14348978 0.95790184 -0.24866594 
-0.008131805 0.9920287 -0.12574951 
0.026482007 0.9985361 -0.047162633 
0.05426462 0.99667406 0.0607973 