# OOMMF OVF 2.0
# Segment count: 1
# Begin: Segment
# Begin: Header
# Title: J
# meshtype: rectangular
# meshunit: m
# xmin: 0
# ymin: 0
# zmin: 0
# xmax: 32
# ymax: 32
# zmax: 1
# valuedim: 3
# valuelabels: J_x J_y J_z
# valueunits: A/m2 A/m2 A/m2
# Desc: Total simulation time:  0  s
# xbase: 0.5
# ybase: 0.5
# zbase: 0.5
# xnodes: 32
# ynodes: 32
# znodes: 1
# xstepsize: 1
# ystepsize: 1
# zstepsize: 1
# End: Header
# Begin: Data Text
0 0 39101398116.83446
0 0 39424781747.07959
0 0 40536933611.16976
0 0 48475017374.21255
0 0 92164229728.03558
0 0 143539268515.58807
0 0 173709752000.12177
0 0 77650237911.80844
0 0 39204802256.14338
0 0 39489332672.19259
0 0 42682159925.33688
0 0 177558630461.08994
0 0 194628773178.6517
0 0 194540466559.201
0 0 194652395402.68222
0 0 193520506565.67477
0 0 193566395092.67102
0 0 191113834227.9705
0 0 195291084411.2429
0 0 173391840362.72333
0 0 180804438395.4747
0 0 191258398458.11917
0 0 187921269802.44144
0 0 195273754816.97595
0 0 39088327533.380714
0 0 39741185954.82045
0 0 42031176818.62468
0 0 100504097578.82643
0 0 153254579707.98495
0 0 177608999294.0857
0 0 183892011893.43668
0 0 192209588861.72885
0 0 39534826381.396225
0 0 40353660919.04862
0 0 42170106151.73559
0 0 58386603219.94621
0 0 134214219950.07133
0 0 167387100461.16446
0 0 184976755526.6659
0 0 172374508005.09183
0 0 42186872119.72143
0 0 46635154750.30467
0 0 69222511847.73703
0 0 171610508391.4487
0 0 194992086442.48578
0 0 195308842308.5488
0 0 195208479126.38245
0 0 195045881683.75024
0 0 195278480930.29254
0 0 193489956166.59418
0 0 194866211923.225
0 0 181596896012.47815
0 0 177391661494.2573
0 0 181453273223.5764
0 0 168705663426.09354
0 0 185270958845.19852
0 0 39289288098.40719
0 0 40571833131.119446
0 0 45161818661.613846
0 0 136752630843.23772
0 0 173908611535.26352
0 0 185131766410.66537
0 0 188170813961.23965
0 0 190687703390.90433
0 0 41749302877.109924
0 0 42721703132.243935
0 0 46457897003.39408
0 0 78941436611.4415
0 0 138092053030.84082
0 0 175562607768.66266
0 0 192910258556.73984
0 0 195010851606.76978
0 0 143052027902.22522
0 0 96361201371.64966
0 0 122475795332.87306
0 0 172565966556.09814
0 0 191816351580.97318
0 0 193344921913.66934
0 0 194939166837.86844
0 0 194472326396.74872
0 0 189643452675.00366
0 0 195312403850.87296
0 0 193719897368.67804
0 0 194580197166.7691
0 0 191169730027.38388
0 0 186986631758.24503
0 0 171123081211.9333
0 0 184810093700.6047
0 0 194980950614.78
0 0 193206325618.58557
0 0 161506022536.90088
0 0 175297891262.78067
0 0 184444139141.15448
0 0 188691916326.1046
0 0 187446539665.91913
0 0 187605257142.31824
0 0 57514612850.78773
0 0 47972952198.89624
0 0 52564762640.89497
0 0 98982093605.5054
0 0 146734864933.36023
0 0 182631359585.0036
0 0 195242670021.23764
0 0 191507130340.5426
0 0 170971405259.35535
0 0 150159040726.77295
0 0 169519446603.03656
0 0 185285522308.36227
0 0 192261907681.72144
0 0 189534488230.10095
0 0 192211760814.18497
0 0 193697652194.4727
0 0 194303395639.83838
0 0 192966602013.24548
0 0 190861851997.4396
0 0 193873785449.31448
0 0 194645441154.47598
0 0 195286207354.9821
0 0 190498716707.0309
0 0 194399591940.6347
0 0 193959338248.3996
0 0 192744408739.59787
0 0 190003748405.2722
0 0 187178070588.33313
0 0 187275319834.83655
0 0 187231548498.1355
0 0 187683224985.7791
0 0 191622453049.45184
0 0 155281271703.22226
0 0 131279955779.56012
0 0 117097300604.84718
0 0 144844291661.02414
0 0 162750583727.97375
0 0 189568377078.00595
0 0 195062809836.5461
0 0 193362504030.2641
0 0 190891316945.19702
0 0 189245706521.06934
0 0 194601845716.68774
0 0 193984952402.40878
0 0 190923140479.41373
0 0 194980098509.62485
0 0 192506827032.65057
0 0 194574078116.28033
0 0 193384235302.4648
0 0 185499269671.25027
0 0 188566272283.3044
0 0 188792024548.36832
0 0 185007751247.0477
0 0 187231214531.3768
0 0 193462995633.8188
0 0 194090594052.28506
0 0 195293560185.6542
0 0 193390335984.02707
0 0 194055689323.78995
0 0 195126016648.83682
0 0 193530483369.28345
0 0 192420983229.33435
0 0 193602714727.18414
0 0 195180656893.8339
0 0 190600468975.48074
0 0 189367376656.1018
0 0 188222817059.29883
0 0 189680643504.4094
0 0 189552596515.55853
0 0 195162645330.20602
0 0 192485291463.33652
0 0 193482114440.83566
0 0 194888689368.06873
0 0 195178863652.77606
0 0 194776895390.202
0 0 183633549518.74002
0 0 171113223497.92252
0 0 187182000839.87405
0 0 195027636906.80167
0 0 194587208813.77853
0 0 189333860025.9951
0 0 186235263620.66913
0 0 192121636650.22372
0 0 192351690912.8516
0 0 188019270609.8469
0 0 184928546669.0679
0 0 181151343643.77267
0 0 175012910274.97128
0 0 180443919498.312
0 0 193447424324.00214
0 0 195136982374.15524
0 0 195311063589.20972
0 0 194874241611.50372
0 0 195306391066.54623
0 0 194599765002.4134
0 0 195279016922.36316
0 0 194809211044.17517
0 0 195305484457.96558
0 0 195188796529.28107
0 0 195311142488.49222
0 0 195308276784.49164
0 0 194743355235.96094
0 0 190243044789.838
0 0 192316893371.05045
0 0 194203688316.78046
0 0 194501960676.1527
0 0 195305363695.06683
0 0 188251296518.16913
0 0 178816880311.2983
0 0 183727806145.42957
0 0 191926065101.4095
0 0 191757105261.07977
0 0 192205016432.04495
0 0 193299301981.57803
0 0 194961931897.01385
0 0 194261504384.10724
0 0 187291329897.72476
0 0 177730722493.7401
0 0 164258653694.7882
0 0 158454407219.29858
0 0 162584796783.654
0 0 177633859688.60742
0 0 188418661192.9677
0 0 194419675156.2596
0 0 194786443916.7123
0 0 195312486367.61
0 0 192982218310.46054
0 0 193705253202.50485
0 0 195062425065.46707
0 0 194640196722.25726
0 0 194269212633.0892
0 0 195067393414.7309
0 0 195272300671.16943
0 0 195310387044.9559
0 0 194634849772.1182
0 0 193506308338.8353
0 0 192895467445.54782
0 0 192019594813.4131
0 0 192179905649.33063
0 0 195306585247.9659
0 0 194946908514.54944
0 0 195182513232.76132
0 0 195312289877.7399
0 0 193610451739.46964
0 0 194059003414.99414
0 0 195147116951.3105
0 0 194761430900.6732
0 0 188512707261.37357
0 0 163407054824.41458
0 0 142272758910.60535
0 0 130829592485.84802
0 0 145688829542.43884
0 0 168431915856.24606
0 0 182694541999.37283
0 0 190322509006.8567
0 0 194480991115.88943
0 0 194743451939.0971
0 0 194960196208.49182
0 0 194764912515.94904
0 0 194223444451.29608
0 0 194655522822.0315
0 0 195304366772.64908
0 0 195310563243.2187
0 0 195267240764.8659
0 0 195244989101.66425
0 0 195129714733.6706
0 0 194217021201.20547
0 0 195274684995.71088
0 0 188722965321.80923
0 0 170900874641.00433
0 0 120541410054.93906
0 0 57433297748.8451
0 0 59985810648.076485
0 0 114527035419.80113
0 0 190876973903.8784
0 0 193804509630.64386
0 0 190517339348.67618
0 0 193264506194.66412
0 0 192050448903.5294
0 0 171390015064.00714
0 0 113572024180.55518
0 0 81553540316.57497
0 0 83462430896.0278
0 0 126177593035.69675
0 0 173315308636.5069
0 0 192086433620.46484
0 0 195312189502.0702
0 0 195203774967.4392
0 0 194715599298.75314
0 0 193818263316.49237
0 0 193765604034.7033
0 0 191668566754.68753
0 0 194652580442.9588
0 0 194711217248.9927
0 0 193596115980.7073
0 0 195115808782.51114
0 0 195304042817.99017
0 0 195309674031.8611
0 0 194958239888.11505
0 0 195037225547.29846
0 0 182762547014.87387
0 0 144490369045.96503
0 0 61023025250.791756
0 0 42682005564.877625
0 0 41396227531.597534
0 0 46786727551.5926
0 0 188229079827.18903
0 0 193751238720.44583
0 0 188015207683.06317
0 0 188540755414.15042
0 0 181079468319.8145
0 0 143501927187.08356
0 0 71309881441.53714
0 0 50382827679.404495
0 0 53166061773.87531
0 0 101199622925.80252
0 0 175362857737.779
0 0 195268585689.44693
0 0 193431987185.365
0 0 195285425677.28598
0 0 194947969594.96323
0 0 195278007486.07007
0 0 192883156231.75183
0 0 182268592580.3364
0 0 190709945165.10867
0 0 188533190134.56726
0 0 186294407481.44595
0 0 193351650304.52115
0 0 195010366462.14996
0 0 194518534994.7433
0 0 193325980065.77286
0 0 191689775264.08047
0 0 173435125582.451
0 0 116055836139.70845
0 0 47926573297.96092
0 0 40304250074.94335
0 0 39497452141.146706
0 0 40160510251.69898
0 0 187907338903.83813
0 0 193761894411.3805
0 0 185425361577.40378
0 0 182834023620.0081
0 0 175152260685.21237
0 0 146704044676.178
0 0 75656140992.39899
0 0 49691272287.044785
0 0 50103381376.88892
0 0 81845526349.22995
0 0 167003995251.7208
0 0 195310931289.47787
0 0 193782195056.62888
0 0 195293307925.691
0 0 193666647086.49176
0 0 194609841121.5543
0 0 195064375786.3881
0 0 182509768445.94974
0 0 39273266676.53272
0 0 42309363033.51775
0 0 168196136827.81546
0 0 193609253429.43802
0 0 195024522547.0234
0 0 194200810904.69278
0 0 190712202511.0837
0 0 187915527836.1303
0 0 173604324115.06235
0 0 127177087016.33743
0 0 45706238018.343346
0 0 40070002412.920334
0 0 39185014478.847664
0 0 39128460140.26191
0 0 182473657811.81018
0 0 193057436583.6717
0 0 193957678018.65695
0 0 188605137758.50558
0 0 180870526124.94513
0 0 157590266592.78687
0 0 89022697938.20518
0 0 56526721058.82779
0 0 55304940999.406784
0 0 91636700044.05444
0 0 165746529237.36188
0 0 194476897894.59656
0 0 195308830961.72473
0 0 194387089486.65656
0 0 193161568066.89526
0 0 191726709596.24838
0 0 99594775159.19073
0 0 46697960110.20024
0 0 39383546126.21161
0 0 39557308542.25533
0 0 115114608096.73228
0 0 195030225127.45132
0 0 195264998231.35648
0 0 192044047827.53745
0 0 189993965991.4175
0 0 188979833545.63016
0 0 183809624481.63806
0 0 163101584219.47696
0 0 40049229756.21562
0 0 39640945829.386925
0 0 39248002752.65582
0 0 39213783901.93351
0 0 164136036870.72778
0 0 183979466011.47736
0 0 194922010904.97455
0 0 194580659797.72324
0 0 190357478775.04352
0 0 172248370000.5201
0 0 119449234936.69138
0 0 83270601781.8823
0 0 88689213145.86229
0 0 137661263149.6268
0 0 178116298768.25275
0 0 192212872933.95395
0 0 193056512726.85883
0 0 192215018719.07507
0 0 193522156736.94022
0 0 187787305280.61398
0 0 42996086165.93514
0 0 40621328185.018845
0 0 39540365860.84496
0 0 39386695717.21848
0 0 39623973687.87182
0 0 188728905534.33563
0 0 194843232329.29572
0 0 194031815298.61646
0 0 194372224514.60263
0 0 195270852263.76154
0 0 195107363808.677
0 0 194212256514.30447
0 0 121867241854.92899
0 0 41549485029.643585
0 0 43167216527.26889
0 0 91891242159.40346
0 0 161179063730.87042
0 0 173064920923.61896
0 0 186112761705.31723
0 0 190925119344.1275
0 0 194870069714.1463
0 0 189586395813.35742
0 0 166174803286.3528
0 0 148539316754.62405
0 0 155659207653.66306
0 0 171759467354.73816
0 0 183665266467.56467
0 0 192184601643.23718
0 0 194615553545.8449
0 0 195021364978.09204
0 0 193303325815.68973
0 0 47821525626.7425
0 0 39414630560.012474
0 0 39564843130.97775
0 0 39243883395.26963
0 0 39258963445.91873
0 0 39212669755.21241
0 0 190182508326.92828
0 0 193492382614.4877
0 0 195143145297.48672
0 0 194315252471.03253
0 0 191935148763.08954
0 0 194150191510.6797
0 0 194884607120.65775
0 0 171767357189.63293
0 0 103443059732.73004
0 0 120228099663.27596
0 0 162295430684.98352
0 0 172174499716.33945
0 0 175529078021.9378
0 0 185707828270.5151
0 0 189384299699.15805
0 0 192512797866.43744
0 0 195310840485.23892
0 0 192426883140.7347
0 0 184018448243.72873
0 0 174465143982.26465
0 0 169551347773.53967
0 0 177016581111.85974
0 0 190928507533.776
0 0 195222831062.84497
0 0 195281086835.34036
0 0 187607231756.84543
0 0 40048319685.4575
0 0 39068264981.54802
0 0 39214207687.832726
0 0 39094282563.79795
0 0 39063209636.43595
0 0 39199079353.84567
0 0 184782064186.41098
0 0 188496027042.94397
0 0 190338826650.48764
0 0 185897714819.1294
0 0 180036021423.66418
0 0 185447176464.7362
0 0 193822851053.0419
0 0 193575539317.1258
0 0 181885956724.30838
0 0 176102930765.00806
0 0 177968303011.248
0 0 181896587309.81772
0 0 188263299085.48743
0 0 191628295535.31134
0 0 190293712798.021
0 0 189355642081.29892
0 0 192271014965.93542
0 0 194737772842.02957
0 0 194521478345.0148
0 0 184552912329.37613
0 0 171089731585.75983
0 0 173358203089.91647
0 0 186824181073.81693
0 0 192906815175.23422
0 0 192273824902.3496
0 0 193278472763.32788
0 0 40457549828.02389
0 0 39197590119.689964
0 0 39081441110.37392
0 0 39081539671.93282
0 0 39194450651.42377
0 0 40417571574.30972
0 0 193108465742.74606
0 0 192329743548.10562
0 0 193012865292.60196
0 0 186892182985.4305
0 0 173628529206.91748
0 0 171697387394.06345
0 0 185333416782.9995
0 0 194670907195.32672
0 0 194727436948.47263
0 0 192390111014.26968
0 0 189820603272.08832
0 0 190626914975.85513
0 0 191645413474.12613
0 0 188509122743.91232
0 0 181580427595.4831
0 0 177694450929.4306
0 0 176472851108.59366
0 0 182461909224.31836
0 0 193962744990.51395
0 0 193442616398.28848
0 0 184991539640.75943
0 0 179627635455.52304
0 0 185599393275.2428
0 0 189996942538.7632
0 0 188162118209.8763
0 0 184623592026.56302
0 0 39199656813.9047
0 0 39063291316.808334
0 0 39095601774.12348
0 0 39214285928.72647
0 0 39067868767.53742
0 0 40016952902.04734
0 0 188119767165.89246
0 0 195283924233.88235
0 0 195237630047.68967
0 0 190883246916.49
0 0 176858289459.20996
0 0 169627940281.23285
0 0 175066637363.36386
0 0 184550756167.90512
0 0 192449282083.9877
0 0 195312115055.8342
0 0 192970383704.1278
0 0 189748819484.29477
0 0 185781558045.31433
0 0 175498253714.8167
0 0 171385573175.455
0 0 162591647861.34894
0 0 121841796067.32898
0 0 104707450918.61485
0 0 174465357287.15753
0 0 195095016754.5427
0 0 194030682843.39233
0 0 191817378408.22327
0 0 194190912112.8931
0 0 195062543665.86276
0 0 193299512503.82892
0 0 189967322815.81616
0 0 39216205975.31517
0 0 39261598748.8497
0 0 39247032517.08592
0 0 39562806252.394295
0 0 39409396289.31061
0 0 47497031193.227295
0 0 193411825018.36963
0 0 194987225867.26688
0 0 194633574371.6156
0 0 192147726867.43848
0 0 183375321404.01486
0 0 171316768376.5266
0 0 155473569597.99603
0 0 148765863448.79706
0 0 166188316086.08795
0 0 189467157581.7937
0 0 194973943167.5007
0 0 191099901982.31824
0 0 186210077288.05966
0 0 173043550624.61334
0 0 162011514448.0869
0 0 95717405149.3299
0 0 43041020031.35001
0 0 41415324824.16807
0 0 141451259656.4616
0 0 194732298519.78033
0 0 195184238798.32205
0 0 195284891031.34967
0 0 194461096681.21304
0 0 194175791720.8252
0 0 194795248528.3862
0 0 188681705959.5428
0 0 39628404989.68235
0 0 39391439025.38033
0 0 39543088219.114655
0 0 40620717521.76714
0 0 42982144689.19773
0 0 188038908646.7783
0 0 193535061338.9784
0 0 192035671366.75058
0 0 193030989798.29022
0 0 192254504530.61517
0 0 177979558314.85596
0 0 137295291232.29927
0 0 88301254596.02286
0 0 83001324421.25873
0 0 119417652363.62355
0 0 172124285336.50604
0 0 190090140928.70407
0 0 194429714465.7668
0 0 195019669170.32986
0 0 184671415362.23276
0 0 168764661365.652
0 0 39139740914.08673
0 0 39201837451.29488
0 0 39564744571.6255
0 0 39862379646.179375
0 0 166666349138.52316
0 0 184711123205.39706
0 0 189390826732.97638
0 0 190368072896.98123
0 0 192344200785.28152
0 0 195273818287.42715
0 0 195053719880.70163
0 0 114159322645.03136
0 0 39567853535.8898
0 0 39386982752.13278
0 0 46761453441.06752
0 0 99946766061.10165
0 0 191813857595.9359
0 0 193200243995.8834
0 0 194288299246.949
0 0 195304098723.15698
0 0 194494309394.43414
0 0 165756993950.39426
0 0 91585419669.28091
0 0 55268855760.72502
0 0 56452756086.23499
0 0 88898613755.74396
0 0 157485756170.07956
0 0 180471599060.83078
0 0 187979023976.88663
0 0 193605387313.00647
0 0 193565233922.43817
0 0 186494368392.20584
0 0 39101908687.775
0 0 39163672690.807434
0 0 40014751617.08501
0 0 45564982042.89401
0 0 127380337146.08008
0 0 173966568164.4647
0 0 188218061126.69876
0 0 190961463365.05603
0 0 194321606811.04257
0 0 195019866190.74228
0 0 193724188358.4942
0 0 169116227643.2834
0 0 42336442400.5956
0 0 39273017108.70291
0 0 182441258990.80936
0 0 195012175363.50644
0 0 194633450917.2176
0 0 193693043383.19217
0 0 195285457972.54697
0 0 193853048996.97516
0 0 195310437188.0166
0 0 167018430081.41528
0 0 81919198594.15652
0 0 50113763281.27308
0 0 49684575384.97028
0 0 75672487723.07939
0 0 146850709901.4932
0 0 174973436870.22098
0 0 182385602319.69128
0 0 185069793467.80307
0 0 193744152651.9579
0 0 188433260626.74792
0 0 40109620333.550766
0 0 39478493714.858345
0 0 40274120300.82848
0 0 47797863652.56912
0 0 116821595121.42133
0 0 173986108923.12326
0 0 191897445288.2246
0 0 193487385779.69656
0 0 194594692675.03006
0 0 195014246877.95172
0 0 193401511295.0082
0 0 186407500881.09927
0 0 188474752978.3499
0 0 190871523650.2162
0 0 182241234059.87015
0 0 192793708059.6473
0 0 195272761565.22855
0 0 194960187782.7937
0 0 195284733506.99765
0 0 193453714126.3285
0 0 195270559250.70862
0 0 175547519674.0318
0 0 101548245825.6615
0 0 53178343128.37337
0 0 50389806410.55615
0 0 71413903085.25755
0 0 143851786049.31366
0 0 181188798388.57028
0 0 188480901642.2528
0 0 187996193186.7612
0 0 193945797161.72052
0 0 187481764158.88712
0 0 46641574156.575386
0 0 41372145923.66836
0 0 42708689377.6748
0 0 61286404898.47269
0 0 144927020327.74905
0 0 182869483817.05078
0 0 195050115047.4169
0 0 194922120711.80496
0 0 195306577198.18915
0 0 195305556473.45172
0 0 195120105846.47086
0 0 193618268318.0782
0 0 194704268632.50552
0 0 194704492082.8365
0 0 191670096368.26758
0 0 193711498071.16473
0 0 193747813527.52612
0 0 194680209497.75455
0 0 195185315826.4254
0 0 195310566135.18927
0 0 192163765577.90244
0 0 173578076070.35513
0 0 126707748945.13338
0 0 83709872804.0355
0 0 81726277959.44362
0 0 113704862849.10214
0 0 171566524281.28387
0 0 192195390549.7511
0 0 193379003470.4027
0 0 190676883153.34512
0 0 193980393220.935
0 0 190293155343.27124
0 0 112241222578.5205
0 0 58980147535.60448
0 0 57113588572.274155
0 0 120042551890.16649
0 0 170624619874.23434
0 0 188628419768.89215
0 0 195273275609.96362
0 0 194180324125.06036
0 0 195114683865.74533
0 0 195245079797.1089
0 0 195269428951.44574
0 0 195310314028.0671
0 0 195305913629.5117
0 0 194710679067.1928
0 0 194215497302.72336
0 0 194781829171.63818
0 0 194911079807.16364
0 0 194690227543.85315
0 0 194520905409.2581
0 0 190428728709.6483
0 0 182802901101.85806
0 0 168525966272.9444
0 0 145807115926.19766
0 0 130768805850.78223
0 0 142030875509.72513
0 0 163190635345.38583
0 0 188447617550.3668
0 0 194793038021.02896
0 0 195187911691.30493
0 0 194187016880.87296
0 0 193715308695.71924
0 0 195310062860.24988
0 0 195124577309.27585
0 0 194932180838.6378
0 0 195309408333.50586
0 0 191687437881.85666
0 0 191663743866.61746
0 0 192720268782.2076
0 0 193443126805.97357
0 0 194665506463.53625
0 0 195303539748.96378
0 0 195282254839.06094
0 0 195066069293.6895
0 0 194254293192.10733
0 0 194670024616.5005
0 0 195103512024.22876
0 0 193693692090.56717
0 0 192995627850.0158
0 0 195311522375.56213
0 0 194730176117.8248
0 0 194443159546.22974
0 0 188426009934.70856
0 0 177598525100.5554
0 0 162430320978.18695
0 0 158228320584.08658
0 0 163866994480.03436
0 0 177448729648.7857
0 0 187137521911.67868
0 0 194209285960.87253
0 0 194938232447.4954
0 0 193306907794.50366
0 0 192295013249.30597
0 0 191843962900.84583
0 0 192089804478.33356
0 0 183935750569.52747
0 0 178750782736.4162
0 0 188570192531.01804
0 0 195312413964.44156
0 0 194376467982.5094
0 0 194103624898.54666
0 0 192312809048.6836
0 0 190455988987.59036
0 0 194837299835.98853
0 0 195302946756.33408
0 0 195311212020.15143
0 0 195194299581.1116
0 0 195309298507.92114
0 0 194769215366.64185
0 0 195281364729.81796
0 0 194601571941.24738
0 0 195304911753.9482
0 0 194863562276.82562
0 0 195310927786.5759
0 0 195127029468.80814
0 0 193408425206.49554
0 0 180276102965.5034
0 0 174817170641.027
0 0 180820137585.42957
0 0 184725585176.85724
0 0 187954824290.68756
0 0 192319267772.7009
0 0 192059717591.04282
0 0 186019037651.25198
0 0 189202130710.22723
0 0 194576323989.21307
0 0 195047073266.3635
0 0 187391878218.79834
0 0 171252719319.7575
0 0 183934573084.00198
0 0 194832109325.451
0 0 195138641263.5672
0 0 194848283779.95877
0 0 193523356570.7579
0 0 192658249432.2777
0 0 195106374812.10342
0 0 189342766733.94843
0 0 189603542768.96573
0 0 188192438701.85928
0 0 189359065376.76743
0 0 190591002706.62088
0 0 195191085277.20453
0 0 193579978460.33746
0 0 192394476571.63547
0 0 193509701848.69406
0 0 195128662889.66418
0 0 194040207235.54892
0 0 193375384958.83865
0 0 195294922144.45828
0 0 194077576039.7215
0 0 193402769718.70535
0 0 187091894808.62326
0 0 184945427900.9069
0 0 188774168452.16885
0 0 188550767441.3628
0 0 185382189647.73355
0 0 193328119720.60605
0 0 194582499915.29913
0 0 192529890085.87506
0 0 194973496569.0784
0 0 190875927789.55542
0 0 193916175153.237
0 0 194665448746.95853
0 0 189490057132.89493
0 0 191170235887.5929
0 0 193573712841.58078
0 0 195141087316.77838
0 0 189309110528.13202
0 0 162596989622.24048
0 0 144802694773.8508
0 0 117343901603.90912
0 0 131710224908.1464
0 0 155292765894.0434
0 0 191605537730.16446
0 0 187696310312.6851
0 0 187243529684.0776
0 0 187268199305.1551
0 0 187194286307.26373
0 0 190072371437.15366
0 0 192823510732.7551
0 0 194018837237.73633
0 0 194359504703.16486
0 0 190402184461.82248
0 0 195282023705.77826
0 0 194652874622.0492
0 0 193868323208.35114
0 0 190812396517.50235
0 0 192931421193.72803
0 0 194309930508.8663
0 0 193672366261.65613
0 0 192157112000.6258
0 0 189412805601.79233
0 0 192171316134.23264
0 0 185355229324.36874
0 0 169849714219.39285
0 0 150838069576.67163
0 0 171535687716.24142
0 0 191661707801.45752
0 0 195237606738.0172
0 0 182829907013.88162
0 0 146880617377.6826
0 0 98886362049.99248
0 0 52542799600.32699
0 0 47990895135.46901
0 0 57623611365.98607
0 0 187661145817.71527
0 0 187520612939.30222
0 0 188722163998.0083
0 0 184431807975.84357
0 0 175148209044.08124
0 0 161033530408.9064
0 0 193230646847.597
0 0 194990597306.6539
0 0 184700484173.32996
0 0 170952426758.56302
0 0 186838302619.8148
0 0 191094805527.76895
0 0 194580126521.2332
0 0 193676921304.46674
0 0 195311524673.62808
0 0 189732378078.9345
0 0 194494229509.54855
0 0 194932469236.59808
0 0 193289476698.36804
0 0 191696362300.63394
0 0 172294178676.9781
0 0 122063995937.596
0 0 95955140336.12923
0 0 142644685505.68832
0 0 194934569460.20016
0 0 193127202718.42957
0 0 176016871932.63205
0 0 138158367248.58447
0 0 78839466636.59886
0 0 46445343373.3965
0 0 42726846368.94526
0 0 41749690355.5637
0 0 190724048926.9535
0 0 188208834802.1103
0 0 185173657745.52548
0 0 174061769183.77145
0 0 137099503141.44437
0 0 45175521747.56522
0 0 40571042438.11635
0 0 39302957883.03576
0 0 185319769737.19965
0 0 168826482994.2828
0 0 181504341846.6757
0 0 177422790019.79208
0 0 181624285611.29697
0 0 194863437957.87643
0 0 193468207828.7402
0 0 195283223545.75262
0 0 195026867183.82935
0 0 195202154356.99658
0 0 195308245546.65628
0 0 194984376749.89557
0 0 171461024742.4244
0 0 68850571702.29243
0 0 46509014940.4255
0 0 42108878110.97013
0 0 172679727819.4171
0 0 185144036228.1949
0 0 167502904791.16003
0 0 134286003222.94592
0 0 58287495311.31594
0 0 42159706727.55471
0 0 40351242055.43082
0 0 39535860447.886215
0 0 192154571876.03976
0 0 183851343457.54727
0 0 177630580016.322
0 0 153481271410.1813
0 0 100907000105.82578
0 0 42020796319.24245
0 0 39736620149.009636
0 0 39087140488.3088
0 0 195281825838.64474
0 0 188025135492.08575
0 0 191353088646.28705
0 0 180918421274.3512
0 0 173392084048.57037
0 0 195298290998.73465
0 0 191229915355.80533
0 0 193637405796.16605
0 0 193546443293.96136
0 0 194667198423.21936
0 0 194570393420.48508
0 0 194648833772.26245
0 0 177432386860.54218
0 0 42733094668.941414
0 0 39494241307.173546
0 0 39202969875.44776
0 0 77708178202.97292
0 0 173829112453.41702
0 0 143856395049.80585
0 0 92586840504.68848
0 0 48452725181.66282
0 0 40525363078.74558
0 0 39420321019.05955
0 0 39102118155.01841
# End: Data Text
# End: Segment
