# OOMMF OVF 2.0
# Segment count: 1
# Begin: Segment
# Begin: Header
# Title: J
# meshtype: rectangular
# meshunit: m
# xmin: 0
# ymin: 0
# zmin: 0
# xmax: 32
# ymax: 32
# zmax: 1
# valuedim: 3
# valuelabels: J_x J_y J_z
# valueunits: A/m2 A/m2 A/m2
# Desc: Total simulation time:  0  s
# xbase: 0.5
# ybase: 0.5
# zbase: 0.5
# xnodes: 32
# ynodes: 32
# znodes: 1
# xstepsize: 1
# ystepsize: 1
# zstepsize: 1
# End: Header
# Begin: Data Text
0 0 39110430064.57339
0 0 39116777900.4782
0 0 39152595439.157646
0 0 40131430280.21203
0 0 62838600551.87121
0 0 97403586859.82811
0 0 145804894264.93668
0 0 178852786728.15292
0 0 187263771199.35995
0 0 191807288018.88293
0 0 194780050264.7711
0 0 194094741832.51935
0 0 192736742787.71005
0 0 188641393094.5571
0 0 192740221108.54376
0 0 194680790641.27036
0 0 193788255442.99805
0 0 195218112052.14813
0 0 195216495895.31503
0 0 194840370092.0334
0 0 194422286003.8201
0 0 194064809191.9753
0 0 193895750903.6834
0 0 194040910916.86252
0 0 184988356325.97696
0 0 163549051212.9246
0 0 105340672131.87607
0 0 49801464057.38377
0 0 44850635746.3903
0 0 46867580309.45011
0 0 104981517742.25806
0 0 155114016641.08786
0 0 39160544954.58148
0 0 39302509279.46489
0 0 39276185275.386826
0 0 39576222602.81818
0 0 119613146633.71878
0 0 148921098524.57428
0 0 177370751726.35684
0 0 191282078642.48718
0 0 193269882468.6268
0 0 194322946951.88242
0 0 195178016091.677
0 0 194339461765.3616
0 0 192796021743.7953
0 0 188620241704.93173
0 0 192912632506.0122
0 0 194915295320.99347
0 0 194122139208.96524
0 0 195138921417.2336
0 0 195284088744.45087
0 0 194961712694.07037
0 0 194633017624.4998
0 0 194977026584.1131
0 0 195312453245.2777
0 0 190806469698.6198
0 0 184153249529.53882
0 0 172839863117.57504
0 0 127940686838.42267
0 0 72248139877.47313
0 0 65060293986.60901
0 0 93798968649.12837
0 0 155903950916.98535
0 0 173367133157.40802
0 0 39756822309.86934
0 0 40364381286.17318
0 0 41879469523.449066
0 0 41738453861.602104
0 0 195223114807.73856
0 0 194322953684.46994
0 0 195306416133.8408
0 0 194221220626.74902
0 0 193674081487.40527
0 0 194102802838.87967
0 0 194541542868.28903
0 0 193247775896.14798
0 0 191938397795.97626
0 0 187108123537.43515
0 0 191572445232.04364
0 0 195282164991.21643
0 0 195182289765.8543
0 0 195207942036.68527
0 0 195283741046.2869
0 0 194723519489.28122
0 0 194884057915.11542
0 0 195072675124.43942
0 0 195119720892.91876
0 0 189226791610.08737
0 0 185403351727.96036
0 0 185286211482.92438
0 0 172462820608.44995
0 0 154569431488.37354
0 0 155200388917.67383
0 0 174522650389.2995
0 0 184318246658.109
0 0 182476239072.78833
0 0 42940764223.45127
0 0 49613537819.30791
0 0 90854270264.18813
0 0 157071769104.20657
0 0 186101640130.39407
0 0 191198186565.97098
0 0 190990107683.84802
0 0 188338194578.5202
0 0 187436615944.38382
0 0 188602444743.33786
0 0 190795470646.38885
0 0 190506950556.2309
0 0 189490315140.6534
0 0 183870033444.5818
0 0 187490026714.0611
0 0 192281630676.07388
0 0 193661574634.92252
0 0 195046421031.65732
0 0 195302508129.5384
0 0 194885774155.10123
0 0 195311127678.51685
0 0 193681397176.35355
0 0 194801324880.97394
0 0 194344721525.50558
0 0 192733143248.21036
0 0 194489909522.0474
0 0 193928594308.58878
0 0 191748105158.35776
0 0 189902677488.66547
0 0 189688656277.16165
0 0 186419389828.11166
0 0 180988048437.11685
0 0 134507420642.92413
0 0 133084713995.07625
0 0 161244888668.4181
0 0 181673465171.06403
0 0 187076074948.69452
0 0 189946243735.74783
0 0 191833605787.3635
0 0 190886521528.25977
0 0 190778100349.00162
0 0 190700987492.32004
0 0 190468281606.74707
0 0 189372693983.19614
0 0 187563492853.8141
0 0 182075432205.5269
0 0 185063884506.98376
0 0 187431688687.52457
0 0 187380366029.81357
0 0 191736655708.27975
0 0 194297522909.95972
0 0 194911306599.99506
0 0 192116038655.2957
0 0 187018212794.1474
0 0 190179388573.20197
0 0 194950731888.6215
0 0 195308443123.9048
0 0 194700888488.64365
0 0 195138607973.18756
0 0 194449967480.90518
0 0 190410221724.47375
0 0 184486416996.85107
0 0 178234553997.99313
0 0 176052159945.61996
0 0 193641886741.7899
0 0 190956734902.08832
0 0 192354417408.1167
0 0 192262158265.88263
0 0 190591993049.9955
0 0 192251753796.21515
0 0 194848786723.49545
0 0 195145428487.74225
0 0 195240927356.93732
0 0 195036088780.78766
0 0 193282569243.68658
0 0 190149100621.32318
0 0 188213271802.36124
0 0 186983974263.20743
0 0 190078471276.93875
0 0 188256330303.93585
0 0 184242682693.1822
0 0 186653423987.67337
0 0 189865365076.3989
0 0 190216393930.74167
0 0 182491185378.76108
0 0 177662501819.99963
0 0 184235017483.28436
0 0 191799854098.25418
0 0 192401589211.58322
0 0 189701629033.7425
0 0 192220079373.72034
0 0 195310238719.82935
0 0 192000975150.7517
0 0 185726852898.82983
0 0 181495554309.54324
0 0 182621584002.1689
0 0 192921979307.76273
0 0 194941132390.41214
0 0 195263720572.64423
0 0 194651101545.895
0 0 193043498701.46735
0 0 194392900915.28607
0 0 195279231866.0288
0 0 194790714874.3012
0 0 194261685580.06418
0 0 195123848725.33786
0 0 193885977684.35458
0 0 188822972177.9744
0 0 188473857846.8135
0 0 189600459800.39456
0 0 192408987898.1816
0 0 189620023632.31006
0 0 186341530470.51532
0 0 186955539081.24762
0 0 186288404417.68097
0 0 182233703679.23642
0 0 170502393177.55408
0 0 170155083612.74008
0 0 178222064330.449
0 0 182942888891.5673
0 0 180989215450.94833
0 0 178746106324.84616
0 0 183889221909.12192
0 0 192567630362.83496
0 0 195131933369.08652
0 0 191940464715.84695
0 0 189605370166.6779
0 0 189640583077.4969
0 0 193610686714.9327
0 0 194707797029.94443
0 0 195094880511.58636
0 0 194928464467.32767
0 0 194054895566.12994
0 0 194793222158.85263
0 0 195303424049.45688
0 0 195052437265.57672
0 0 194006341352.86502
0 0 194638749703.3801
0 0 195027047898.55872
0 0 193157694277.71414
0 0 193618298499.25995
0 0 193289956310.75717
0 0 193919469809.6249
0 0 191226363891.02356
0 0 187791180123.86295
0 0 187717339493.59094
0 0 182926552065.44232
0 0 170627403805.2569
0 0 159998628793.296
0 0 167379621993.50662
0 0 171648791111.5314
0 0 163667917153.59326
0 0 153359900929.1463
0 0 159487088587.5147
0 0 173115893192.8716
0 0 187059213762.91644
0 0 193985835366.79996
0 0 195310879101.466
0 0 194970393446.72815
0 0 194347281202.88586
0 0 194999043248.8523
0 0 195155438941.3088
0 0 195237051070.6677
0 0 194869986389.1178
0 0 194643748943.08713
0 0 194764585518.47763
0 0 195153503661.68408
0 0 195183958880.4742
0 0 193228934213.022
0 0 191956486561.1178
0 0 193453057701.72247
0 0 193437736224.29663
0 0 193280634291.86874
0 0 195026361002.07355
0 0 195312458126.14032
0 0 194290244209.91504
0 0 190812392426.58298
0 0 187438945875.66043
0 0 179572478541.68747
0 0 164165832483.1974
0 0 156674887407.14398
0 0 165650129166.26962
0 0 162930141825.2321
0 0 142771174840.4856
0 0 129372590481.42424
0 0 146350053933.24042
0 0 168196841372.38135
0 0 184976080851.2535
0 0 190141769349.58157
0 0 191124746349.34277
0 0 192116450493.46698
0 0 193684971653.51892
0 0 180141440082.24356
0 0 186706958240.45148
0 0 191525821580.90778
0 0 192956753491.98428
0 0 194282697500.91904
0 0 195059788163.6402
0 0 195310254096.91943
0 0 194583146860.97623
0 0 190913877856.0914
0 0 187182983713.1791
0 0 185543790620.4034
0 0 177985681827.22336
0 0 178370654587.45975
0 0 188312687198.90204
0 0 193166751977.26447
0 0 195216518738.7435
0 0 194737861543.86874
0 0 191466279297.62247
0 0 183727771003.47308
0 0 171717662460.46674
0 0 165653781595.9505
0 0 167701128889.3519
0 0 153734501410.96255
0 0 128689739144.66516
0 0 125421425279.49457
0 0 149340759033.40173
0 0 169224580423.5385
0 0 182713205041.43118
0 0 185872161910.07666
0 0 184059653819.6709
0 0 182632977939.27206
0 0 184974169746.745
0 0 110499358221.75302
0 0 134697114487.03459
0 0 172088697696.00986
0 0 185950649320.9666
0 0 192060424601.64288
0 0 194983651608.89243
0 0 195241780360.96744
0 0 194273295236.85397
0 0 192221865614.66626
0 0 186420026052.81882
0 0 172099097942.3293
0 0 132210269497.1942
0 0 125311760278.6415
0 0 153060838550.89056
0 0 178232586818.60226
0 0 190628133718.9775
0 0 194894281860.24014
0 0 194415371830.74927
0 0 188093085173.97314
0 0 181329270734.71887
0 0 179624480860.52017
0 0 178025238937.51657
0 0 156683599599.39914
0 0 133054961172.59074
0 0 139775027918.61728
0 0 161495698774.53693
0 0 172106276590.91354
0 0 178142879831.38727
0 0 181119684959.235
0 0 179192879287.16403
0 0 173603736492.8352
0 0 170832090054.7515
0 0 43675859186.81135
0 0 53978394173.741035
0 0 124750416591.45578
0 0 169042844100.26337
0 0 186172928822.1714
0 0 193728062317.00925
0 0 195258204450.13647
0 0 195130109769.7108
0 0 194028143338.9501
0 0 186323840117.9338
0 0 127617270230.8316
0 0 50478400216.00823
0 0 52879417570.87686
0 0 91353790901.09904
0 0 151743066083.44403
0 0 182625590793.3559
0 0 192066510338.575
0 0 195295531067.01474
0 0 191487897281.6491
0 0 186946753786.0633
0 0 186753480760.20224
0 0 183930594557.85056
0 0 164409768032.9422
0 0 149963675755.0264
0 0 160322549197.1823
0 0 174465929984.5806
0 0 178278966387.0822
0 0 180038955076.50443
0 0 183759797666.12643
0 0 181822671123.5186
0 0 164566095460.53635
0 0 123349318785.22104
0 0 40832007855.64389
0 0 44487827968.573006
0 0 83813754978.05853
0 0 138826666032.92297
0 0 168133644247.05618
0 0 185497671280.8926
0 0 192776047847.59763
0 0 195057159070.42987
0 0 194806152832.22626
0 0 179033187287.1359
0 0 44148565927.8027
0 0 40493817151.59067
0 0 42098486332.305885
0 0 69439563210.64412
0 0 140504499209.9943
0 0 175956662180.79846
0 0 188891731840.59137
0 0 194665642683.23553
0 0 193858534166.80142
0 0 190806795493.78516
0 0 191172035507.70334
0 0 188253054701.8681
0 0 174139713410.5857
0 0 170725067650.06964
0 0 181399491116.14224
0 0 188274613915.8656
0 0 187883352123.39252
0 0 187225774815.8097
0 0 187718971035.7808
0 0 184129862364.91028
0 0 66513435114.506065
0 0 39599468751.43589
0 0 39664519509.28138
0 0 40736223399.56884
0 0 48992708094.816795
0 0 114520296121.90521
0 0 159594585382.63687
0 0 180404342667.26114
0 0 190679330790.6467
0 0 194278327711.85626
0 0 193516038151.04547
0 0 152963903838.67673
0 0 45290305353.2029
0 0 40377226602.325226
0 0 40857729731.795586
0 0 95129377143.47191
0 0 167891576840.24734
0 0 185985349870.21564
0 0 191948806748.47922
0 0 194763311496.90967
0 0 194694727272.2788
0 0 193216663848.72137
0 0 193578880212.43832
0 0 190211864669.03528
0 0 178446228010.43146
0 0 180468068127.58768
0 0 189128871706.3894
0 0 192724110806.86505
0 0 191299580321.59488
0 0 187341384369.16043
0 0 176763500658.39633
0 0 115812839444.88887
0 0 39730398994.32979
0 0 39148493866.811615
0 0 39130055363.48754
0 0 39624499306.70249
0 0 44517650689.658485
0 0 135920906953.20882
0 0 179213976615.18756
0 0 191221730830.53247
0 0 194887507700.23947
0 0 195116176931.18768
0 0 193075137090.33313
0 0 151556528258.30203
0 0 64197387589.319336
0 0 49602510054.011284
0 0 160905210283.4265
0 0 187279170620.59952
0 0 190791716961.44257
0 0 193375456260.8185
0 0 194764419733.61993
0 0 195150901234.9985
0 0 195054709222.76477
0 0 194631755113.03186
0 0 194898969449.1235
0 0 193701192646.41974
0 0 189832036180.2254
0 0 192004157625.0467
0 0 193302696682.69943
0 0 193541264544.22025
0 0 191764989845.057
0 0 183861208773.07867
0 0 149367452731.25183
0 0 45010691847.65372
0 0 39548215971.27039
0 0 39141834143.94379
0 0 39098745243.936066
0 0 39489412924.85842
0 0 43244675903.09769
0 0 150541750502.53406
0 0 188292909404.1755
0 0 194405572032.51294
0 0 195231810545.6815
0 0 195241516809.95392
0 0 194801008871.65936
0 0 180273451211.86136
0 0 151827229112.39465
0 0 171409514236.84848
0 0 195131481291.47873
0 0 195188555491.03326
0 0 194385855392.25613
0 0 194857298329.60535
0 0 195149986289.63538
0 0 195132261121.22998
0 0 195136300777.47876
0 0 194419089665.20093
0 0 195301358503.25897
0 0 194831117797.71936
0 0 195308408131.11118
0 0 195155496264.32993
0 0 194584992426.3309
0 0 193872768590.55084
0 0 193630489680.53253
0 0 188697925815.30115
0 0 156554943926.72714
0 0 41265850123.59374
0 0 39342902718.91402
0 0 39105685561.600334
0 0 39102533791.59675
0 0 39410516015.57773
0 0 42159426945.80147
0 0 148838898230.42914
0 0 186380797219.27255
0 0 193620269866.79742
0 0 194912686528.8453
0 0 195247289320.79678
0 0 195312098378.8656
0 0 195051285927.37466
0 0 193349855107.2969
0 0 194388794509.1222
0 0 195121643481.2574
0 0 195231844377.25217
0 0 195080698555.72977
0 0 195190882798.4985
0 0 195045957972.5377
0 0 194864035768.78378
0 0 195278109385.09583
0 0 194506859040.4254
0 0 184693969325.18057
0 0 159629033356.94095
0 0 183491835454.61972
0 0 195201849825.32358
0 0 194320412555.4588
0 0 194163331101.2677
0 0 194091480720.28818
0 0 190739990532.3693
0 0 162486868505.72998
0 0 42404561424.36343
0 0 39465503949.27984
0 0 39095868453.1329
0 0 39125056830.61722
0 0 39586456700.31509
0 0 47838104873.22463
0 0 149725013030.80157
0 0 182059988466.00873
0 0 190785560954.8411
0 0 194372293514.27618
0 0 194742199342.9885
0 0 193716637558.13358
0 0 192450794537.9408
0 0 195111591842.54156
0 0 195308158140.3855
0 0 195063875794.90564
0 0 195120145574.43884
0 0 195165988543.55203
0 0 194919782055.98807
0 0 193762101328.35626
0 0 192472159946.1245
0 0 193214904124.1524
0 0 185307110422.74915
0 0 52523497895.81609
0 0 66087403707.25667
0 0 153310391607.44058
0 0 193367936576.4538
0 0 194505097565.80112
0 0 193490952694.48212
0 0 189731575256.82623
0 0 180080020511.01523
0 0 141674495774.9408
0 0 44341110622.77042
0 0 39626619560.54323
0 0 39101031140.763306
0 0 39162670434.29535
0 0 39708459458.302025
0 0 130729969600.452
0 0 181067275281.36713
0 0 187828803295.92816
0 0 190218332090.05743
0 0 193040621476.95306
0 0 190654508421.36258
0 0 182862707288.0671
0 0 181711865627.73282
0 0 192412614826.12082
0 0 194427463058.60318
0 0 193608163896.05127
0 0 194741926564.259
0 0 194843092328.92352
0 0 192252539528.7428
0 0 186771172916.63885
0 0 175605423428.0015
0 0 131449851111.50995
0 0 39719000586.42855
0 0 39721846907.95426
0 0 43357377927.76142
0 0 155708091141.46408
0 0 193742759430.68616
0 0 193932055216.1047
0 0 189308635458.514
0 0 178513077158.00333
0 0 159565137105.87137
0 0 118180333162.94627
0 0 48879044901.13166
0 0 40804477734.5463
0 0 39609466158.50421
0 0 39894762673.87866
0 0 67439314192.11101
0 0 185068541746.1765
0 0 189610924412.96918
0 0 187740270362.56482
0 0 186149413665.91614
0 0 187642701041.4665
0 0 182240206973.3594
0 0 170925880335.386
0 0 173637384091.67987
0 0 187825900834.10385
0 0 190625559477.50385
0 0 190211874761.24927
0 0 193628949769.20645
0 0 194942743801.46243
0 0 190333107610.63123
0 0 179744741538.2157
0 0 152347554579.87152
0 0 85849210407.18942
0 0 41719511953.299255
0 0 39967481273.540054
0 0 41201073940.47452
0 0 182922989017.67407
0 0 194915698592.94803
0 0 194969033473.98257
0 0 191862107948.48102
0 0 183007761678.16586
0 0 164158988398.6084
0 0 134227221736.45053
0 0 78229657742.93044
0 0 44715731635.13961
0 0 41005880413.31294
0 0 121606860979.50986
0 0 159242011428.35626
0 0 181035631255.50528
0 0 185706099281.81137
0 0 182268016846.47226
0 0 178336409180.07874
0 0 174773081276.27524
0 0 160842528928.49103
0 0 147601811327.78363
0 0 161133160197.15494
0 0 181328053330.28415
0 0 184508660495.713
0 0 184608932122.9309
0 0 190136023866.53516
0 0 195221710601.5585
0 0 193839267611.0255
0 0 186875240030.45264
0 0 161147506519.66022
0 0 102784991076.89645
0 0 51985378474.162155
0 0 47330016510.169426
0 0 141411405341.4506
0 0 190718163962.34637
0 0 194764266765.9587
0 0 195280103586.801
0 0 195107776389.43713
0 0 193000941296.8415
0 0 182799336189.42288
0 0 162386543853.2163
0 0 116948287682.94998
0 0 53208759651.35
0 0 43871300331.51576
0 0 169740690077.88995
0 0 172634484239.35318
0 0 180301576604.13983
0 0 184180626464.53198
0 0 181410350762.70905
0 0 173701281535.34106
0 0 162910641279.63644
0 0 141185340081.88968
0 0 130486200267.09448
0 0 153319738398.0262
0 0 175282236551.7217
0 0 177217026972.82877
0 0 177709689146.13904
0 0 185210233807.2231
0 0 193182630938.19937
0 0 195294025302.23062
0 0 191772611572.7531
0 0 178222191819.6361
0 0 152376011098.5313
0 0 121338176329.71027
0 0 129620482294.90207
0 0 175087556401.93356
0 0 188168741204.93723
0 0 192878282119.73837
0 0 194261077385.38748
0 0 195115449843.4846
0 0 195188478963.26718
0 0 191836824845.9082
0 0 184417249187.87778
0 0 169748936514.39474
0 0 134454454632.58527
0 0 112789238789.11621
0 0 185021447573.2189
0 0 183959411143.07202
0 0 186254343804.82092
0 0 189088296661.3393
0 0 186286007405.8993
0 0 172654945557.52084
0 0 152240411239.5418
0 0 125965561846.00877
0 0 124976116763.4913
0 0 152059477585.32697
0 0 167764835862.80865
0 0 165521007392.30978
0 0 168024480579.3037
0 0 179632142222.77765
0 0 189624496989.81277
0 0 194354908530.48926
0 0 195137813056.4466
0 0 191694089034.0086
0 0 185865488215.79205
0 0 175673789186.00934
0 0 175947112930.0047
0 0 185140476326.46106
0 0 187633494046.6479
0 0 191006755321.06546
0 0 193935006030.4864
0 0 195089706573.2191
0 0 195305495772.46826
0 0 194595949921.06396
0 0 193028643994.8179
0 0 190811798072.45767
0 0 185436528191.0225
0 0 178240555208.77768
0 0 193354515252.19418
0 0 192232778091.17786
0 0 191443621562.84323
0 0 191587077806.88586
0 0 187322335295.217
0 0 170838431725.462
0 0 146795642485.50333
0 0 126321611770.51077
0 0 137129562293.8293
0 0 160778282660.16196
0 0 166002197130.93887
0 0 157106503948.07324
0 0 161135337856.0704
0 0 175587838219.96808
0 0 186020943105.72272
0 0 191383358778.1896
0 0 194966777789.1152
0 0 195101864732.51105
0 0 194575296453.25565
0 0 192450424174.82498
0 0 192708485496.16016
0 0 193105965746.65323
0 0 192280281125.80573
0 0 192765860692.98044
0 0 194339083574.94485
0 0 195227006062.68344
0 0 195227778832.34015
0 0 195027755385.73816
0 0 194988283914.08237
0 0 195062635674.28058
0 0 194645224240.87778
0 0 193425901828.81998
0 0 194631710713.31454
0 0 195144554704.26044
0 0 195245717579.82053
0 0 194196442197.91415
0 0 188570933250.71347
0 0 174627947969.7778
0 0 158472428570.57562
0 0 149415408134.58804
0 0 158269529695.5571
0 0 168308224997.85474
0 0 165958962800.1675
0 0 158831114316.16327
0 0 167982777287.04523
0 0 180811486276.21353
0 0 187787099151.64493
0 0 189132057827.9982
0 0 192686745168.68442
0 0 194617132107.81027
0 0 194077356483.215
0 0 194620112760.6234
0 0 194296607457.30933
0 0 195237883583.35974
0 0 194602485026.1898
0 0 192957679684.3412
0 0 193832488984.4656
0 0 195127169549.10638
0 0 195029513923.43967
0 0 194479123555.28043
0 0 195141689438.4114
0 0 194949583184.44748
0 0 194729404722.05447
0 0 194886849673.3406
0 0 189954057268.24976
0 0 189719191386.93842
0 0 191920980613.48517
0 0 194887774239.5723
0 0 193816528876.01984
0 0 185552602793.60303
0 0 178768678914.65363
0 0 178971498632.57843
0 0 178954934284.1921
0 0 175101012653.0726
0 0 169235344742.70547
0 0 170852225384.79034
0 0 182084669722.4709
0 0 185817722873.65112
0 0 187337136552.78552
0 0 186274155552.19147
0 0 189479946741.85696
0 0 192483527394.26056
0 0 190663801839.99176
0 0 190525035592.77228
0 0 190870750662.79318
0 0 194237236379.75885
0 0 195172471806.46814
0 0 193659756136.0145
0 0 194141951026.09366
0 0 195226607500.6864
0 0 194323715478.33453
0 0 193582267555.62384
0 0 195184897496.029
0 0 194513150334.3512
0 0 193685067130.32803
0 0 192438619306.68292
0 0 183597396075.59015
0 0 180801118517.41092
0 0 184087152790.58228
0 0 190656017235.06784
0 0 194990285728.65945
0 0 193324016318.76855
0 0 190080602189.54343
0 0 191756989473.8897
0 0 189930922765.50967
0 0 182452525508.14157
0 0 177404609549.11774
0 0 183512823048.7866
0 0 190935938531.44034
0 0 190171296366.068
0 0 186783351162.8861
0 0 182921908171.2244
0 0 186950890155.72842
0 0 189827989082.0851
0 0 187692462765.80313
0 0 188560690593.89343
0 0 190607386520.0341
0 0 192913632396.24506
0 0 194827671347.99503
0 0 195283238134.48975
0 0 195249754728.33197
0 0 195021647145.89386
0 0 193421868482.1933
0 0 192831075647.4149
0 0 194297972807.66043
0 0 194830144715.20734
0 0 194776828266.74033
0 0 195252573398.34708
0 0 178418677137.1926
0 0 179024674110.7687
0 0 184546188697.44193
0 0 189999390335.5714
0 0 193724280998.1834
0 0 195283300218.26755
0 0 194826381007.75452
0 0 195296199178.54385
0 0 194708817676.46655
0 0 189531965218.7296
0 0 186244466252.3247
0 0 191976645529.45605
0 0 195009421009.61008
0 0 194707299119.68134
0 0 192363307546.2464
0 0 187602639208.50818
0 0 187741749069.6162
0 0 186299593880.60294
0 0 182727302767.5158
0 0 187266217385.37692
0 0 189569166121.44904
0 0 189665632916.0405
0 0 190142837982.29105
0 0 191187001538.44946
0 0 191901446488.72485
0 0 193330536811.99606
0 0 193155335170.2547
0 0 191431713289.88245
0 0 186579939148.73865
0 0 174220391414.37057
0 0 157986470848.61984
0 0 158894312006.8517
0 0 182486738178.90176
0 0 187819638811.6335
0 0 191157759198.64584
0 0 190427740261.23096
0 0 190915031204.22995
0 0 193609201527.01495
0 0 194290991510.65732
0 0 192055578501.2584
0 0 193985034098.07135
0 0 194759971892.828
0 0 192955126352.36508
0 0 195210665335.52762
0 0 194981099215.3114
0 0 195207734517.95822
0 0 195238854242.63425
0 0 194174705966.88474
0 0 193277852962.05432
0 0 189558576606.60803
0 0 184398483584.9461
0 0 188889850605.744
0 0 189982560359.02655
0 0 189076265663.17953
0 0 187749450318.83917
0 0 188107301315.0578
0 0 189724657644.14413
0 0 192627908155.64996
0 0 193328489559.71616
0 0 186660232812.77335
0 0 147854874702.9652
0 0 98316169553.20073
0 0 52703728267.64435
0 0 41313571463.4576
0 0 183289560524.38165
0 0 185173173827.49142
0 0 176208952721.12646
0 0 155503694791.9721
0 0 152212116624.4841
0 0 171439304451.45877
0 0 184745516069.7178
0 0 183653944298.95346
0 0 187724609714.37354
0 0 195010701548.94098
0 0 194849121123.75317
0 0 195174775619.0403
0 0 194971634488.75433
0 0 195296671748.27847
0 0 195189290539.3028
0 0 195102083753.9193
0 0 195251840785.32318
0 0 193435747930.64972
0 0 187907014988.2308
0 0 191378594406.42325
0 0 192348771793.30722
0 0 193332212049.9952
0 0 193774220584.0502
0 0 193972386987.78162
0 0 194458550132.87796
0 0 195280857651.4481
0 0 194373484058.40808
0 0 192530158536.64676
0 0 43816532596.609314
0 0 42767923618.72381
0 0 40684820739.890686
0 0 39806836473.99911
0 0 174569229981.67792
0 0 156580243358.33408
0 0 93920218082.93913
0 0 65442572638.25083
0 0 71019275870.1171
0 0 126034082124.80469
0 0 172839214181.264
0 0 183518347222.99197
0 0 189807987269.98206
0 0 195276436980.0407
0 0 194893147854.39804
0 0 194853877358.40887
0 0 195181159817.2766
0 0 195101714127.73306
0 0 195284961444.67435
0 0 194348565593.2947
0 0 194133205815.34668
0 0 194561884598.2137
0 0 189931329434.24283
0 0 192943323484.78125
0 0 193740690715.67896
0 0 195222779477.86453
0 0 194995417351.74557
0 0 193871971026.35007
0 0 191757584926.03693
0 0 177340763021.42578
0 0 139878371301.52914
0 0 102880456090.71506
0 0 39209057459.14876
0 0 39456936616.66223
0 0 39381863624.40283
0 0 39236090283.04985
0 0 156333355887.45285
0 0 104230827547.29602
0 0 46946269270.88523
0 0 44959022238.65351
0 0 49847360296.4546
0 0 104907415482.14246
0 0 164249918398.93924
0 0 184745588819.11722
0 0 193256802054.73416
0 0 194591181657.98804
0 0 194085389617.50546
0 0 194722988276.8446
0 0 195166766262.2798
0 0 194821026707.714
0 0 195290304853.39926
0 0 194346471802.56146
0 0 193598910537.6849
0 0 194498810729.15973
0 0 189894041054.18588
0 0 193345564092.05972
0 0 193609543778.04797
0 0 195288845328.0698
0 0 194361371543.71048
0 0 190575446438.06805
0 0 180649647060.29932
0 0 143378897067.89194
0 0 84728257054.03438
0 0 56458683628.161285
0 0 39964120337.94126
0 0 39140495851.122734
0 0 39173414586.40894
0 0 39063055439.690544
# End: Data Text
# End: Segment
