# OOMMF OVF 2.0
# Segment count: 1
# Begin: Segment
# Begin: Header
# Title: m
# meshtype: rectangular
# meshunit: m
# xmin: 0
# ymin: 0
# zmin: 0
# xmax: 1.6e-07
# ymax: 1.6e-07
# zmax: 5e-09
# valuedim: 3
# valuelabels: m_x m_y m_z
# valueunits: 1 1 1
# Desc: Total simulation time:  3.405475923135795e-11  s
# xbase: 2.5e-09
# ybase: 2.5e-09
# zbase: 2.5e-09
# xnodes: 32
# ynodes: 32
# znodes: 1
# xstepsize: 5e-09
# ystepsize: 5e-09
# zstepsize: 5e-09
# End: Header
# Begin: Data Text
-0.12735257 -0.9917836 0.012105964 
-0.22643188 -0.9676561 0.11122249 
-0.4932543 -0.7400612 0.4571757 
-0.34643233 0.6452053 0.68095136 
0.030710267 0.9098944 0.41370168 
0.18074661 0.94858676 0.25983432 
0.27048096 0.9313885 0.24362992 
0.14628328 0.9226012 0.3569431 
-0.026933251 0.95748657 0.28721794 
-0.05068873 0.98959655 0.13464494 
-0.0014140407 0.99778205 0.066550165 
0.041754868 0.99815124 0.044166133 
0.060121547 0.9979437 0.022221593 
0.062199846 0.9978053 0.022712167 
0.050829265 0.9979784 0.038152374 
0.04292398 0.9990292 0.009907514 
0.0501249 0.99823856 -0.031738516 
0.054162335 0.99836004 -0.018541757 
0.039039034 0.99856246 0.0367305 
0.018533733 0.99788046 0.062378988 
0.010798783 0.9998907 0.01010242 
0.020549096 0.9985395 -0.049965907 
0.038614884 0.9981252 -0.04748745 
0.04349839 0.9990034 0.010011059 
0.054162506 0.9955775 0.07675936 
0.092242084 0.9933967 0.06822341 
0.14035404 0.98972625 -0.027251702 
0.10854232 0.97256535 -0.20575547 
-0.07665265 0.90647864 -0.41523582 
-0.27208865 0.71790946 -0.6407604 
-0.24967553 0.21895084 -0.9432512 
-0.039640035 -0.34010884 -0.9395502 
-0.16402137 -0.9842675 0.06568463 
-0.35470185 -0.91950023 0.16942829 
-0.75899786 -0.44820803 0.47226256 
-0.28117675 0.8405812 0.46299347 
0.0735051 0.9531325 0.29348853 
0.15914857 0.9612246 0.22520915 
0.19957009 0.9515793 0.23381364 
0.10576656 0.9484675 0.29870203 
-0.0044021048 0.9774769 0.21099639 
0.0037353581 0.99668795 0.08123506 
0.050550513 0.99763954 0.046476185 
0.07690584 0.9960576 0.04421152 
0.08906605 0.99556005 0.03045431 
0.085058376 0.9961153 0.022789514 
0.06891948 0.9975578 0.011339748 
0.06291801 0.9975578 -0.030328503 
0.05300578 0.9961959 -0.06916868 
0.028745752 0.9976548 -0.0621181 
0.019242223 0.9994887 -0.025537219 
0.027645621 0.9996175 0.0008709329 
0.028559864 0.99955374 -0.0087538175 
0.030951284 0.9990847 -0.029527646 
0.04932484 0.9983306 -0.030052064 
0.07104561 0.9974689 -0.0029205114 
0.09450554 0.9952137 0.02486995 
0.12678024 0.9919286 0.0021416903 
0.16069454 0.9843933 -0.07174433 
0.14565082 0.9683305 -0.20278515 
0.029734293 0.9272728 -0.37320375 
-0.0792668 0.80030674 -0.5943281 
-0.00020096419 0.3976632 -0.9175315 
0.16173874 -0.13438162 -0.97764117 
-0.23500317 -0.91607326 0.3249359 
-0.59296715 -0.6829706 0.42654562 
-0.86355823 0.17687583 0.47221005 
-0.3202834 0.89820445 0.301077 
-0.023869442 0.9773945 0.21007232 
0.038356412 0.98484945 0.16911635 
0.062953666 0.9841514 0.16577962 
0.040079612 0.985253 0.16634364 
0.012970705 0.99651724 0.082372524 
0.049409248 0.9987319 0.009658088 
0.100752 0.9938519 0.0459078 
0.11375098 0.9892328 0.0920834 
0.10098782 0.9912047 0.085526325 
0.08104322 0.9956167 0.046684444 
0.063188866 0.9979353 -0.011506569 
0.054399073 0.9968366 -0.05794437 
0.027207933 0.99674696 -0.0758632 
-0.0052704387 0.99737406 -0.072231345 
0.009356586 0.99848217 -0.05427531 
0.041774444 0.99856853 -0.03340555 
0.049892604 0.99850994 -0.022105578 
0.05700399 0.997867 -0.03181283 
0.07430317 0.995811 -0.053287987 
0.08550857 0.99452204 -0.0601201 
0.08485588 0.9946685 -0.05860217 
0.073656015 0.99497724 -0.06778764 
0.0724778 0.99397725 -0.08219695 
0.06518418 0.9893452 -0.13018094 
0.010279559 0.9764446 -0.21552332 
-0.03504187 0.9373908 -0.346512 
0.039706826 0.83121884 -0.5545256 
0.15578325 0.68805075 -0.7087439 
0.26516998 0.5324699 0.8038412 
-0.23357795 0.6974072 0.6775431 
-0.44858986 0.8262335 0.3407423 
-0.2791555 0.9445838 0.1727249 
-0.13434729 0.98484015 0.10973031 
-0.08056668 0.993467 0.08082371 
-0.05911791 0.99528384 0.076911025 
-0.028317332 0.9983441 0.050072677 
-0.0025102252 0.9999964 -0.00091761805 
0.04027504 0.9989474 -0.021955157 
0.09904141 0.9942837 0.039885078 
0.11758109 0.98671526 0.112106524 
0.08636992 0.98820066 0.1264898 
0.05213869 0.995988 0.072728455 
0.032507055 0.99947125 -0.0007658676 
0.011467999 0.9995323 -0.02835314 
-0.025856664 0.9992185 -0.029896153 
-0.041009437 0.99837387 -0.039596736 
0.0047812564 0.9988491 -0.04772563 
0.06129376 0.9971968 -0.042915683 
0.09045299 0.9952483 -0.036042 
0.1001044 0.99353355 -0.053573456 
0.07971724 0.9925092 -0.09257825 
0.036057297 0.99215895 -0.11966862 
-0.0054787467 0.9931441 -0.11676834 
-0.044559542 0.99612427 -0.075835325 
-0.05397144 0.99850124 -0.009081718 
-0.040837068 0.9989961 0.018415306 
-0.029785058 0.9994629 -0.013665928 
-0.014880081 0.99589264 -0.08931102 
0.038477764 0.9834932 -0.17680673 
0.0913556 0.9674797 -0.2358755 
0.1506684 0.9740409 0.16894767 
-0.004744999 0.99224937 0.12417245 
-0.14420752 0.9879151 0.056815524 
-0.16611199 0.9859439 0.017928941 
-0.10276491 0.9946364 -0.011737174 
-0.06455089 0.9978583 -0.010585134 
-0.06973082 0.9974471 0.015400136 
-0.062147748 0.9978873 0.018937761 
-0.050274663 0.9987209 -0.0054029855 
-0.026903685 0.9994267 -0.02055688 
0.020161128 0.9997519 0.009465905 
0.06171445 0.99605304 0.06379482 
0.0690763 0.99202055 0.10546929 
0.058955166 0.9945108 0.08644427 
0.03968397 0.9987746 0.029573347 
0.007020324 0.99997354 0.0019141163 
-0.037320618 0.99925166 -0.0101701915 
-0.057420563 0.9979749 -0.027369436 
-0.024901826 0.99871194 -0.04420889 
0.029535383 0.99839956 -0.048230447 
0.07969079 0.99562407 -0.04880648 
0.091721885 0.9935336 -0.066918775 
0.042662248 0.99411565 -0.09956876 
-0.026181111 0.9911141 -0.13041274 
-0.065811366 0.990352 -0.121950984 
-0.08822068 0.99444366 -0.057435904 
-0.08165888 0.9963051 0.026609223 
-0.04615118 0.9965934 0.06834921 
0.006497719 0.9986477 0.051581256 
0.054544993 0.9984942 -0.005856629 
0.09380915 0.99417645 -0.053038735 
0.115137585 0.9904822 -0.07542123 
0.16450916 0.9846183 -0.058853038 
0.12609401 0.99127376 -0.0384284 
0.023817508 0.9996643 0.0102015985 
-0.065811425 0.9978206 0.0047792187 
-0.037988618 0.99874777 -0.032556333 
-0.011062518 0.9992462 -0.037211016 
-0.03579105 0.9993591 0.0006866399 
-0.094661385 0.9951008 0.02852452 
-0.11881679 0.9927847 -0.016163988 
-0.08087274 0.995737 -0.04435675 
-0.03615988 0.99910825 -0.021800974 
0.011247474 0.9999247 0.0049074427 
0.05783248 0.99741817 0.042573053 
0.06846898 0.9954556 0.06618367 
0.037469298 0.998299 0.04466747 
-0.00038625835 0.9998981 0.014273769 
-0.0327211 0.99944556 -0.006158783 
-0.058658987 0.99801886 -0.022751607 
-0.058810316 0.9971082 -0.048130807 
-0.02268063 0.99811727 -0.056987487 
0.032841686 0.9980542 -0.0530025 
0.050444502 0.9967452 -0.06288303 
0.003386248 0.9962845 -0.08605673 
-0.057500213 0.9909667 -0.12115667 
-0.081022926 0.9886587 -0.12644862 
-0.086237885 0.9924996 -0.086646736 
-0.07766234 0.99607426 -0.042482518 
-0.04205211 0.99903125 -0.012972038 
0.012813969 0.999915 0.002402982 
0.056311782 0.9984066 -0.0036537074 
0.079244316 0.99676585 -0.013348977 
0.08365796 0.9963157 -0.018875707 
0.109355 0.99398994 0.0050515267 
0.08457017 0.9957339 0.036903866 
0.0007285595 0.99690634 0.078595445 
-0.07499735 0.9959404 0.049782146 
-0.048217658 0.99882627 -0.0045939055 
-0.008741436 0.9993717 -0.034348097 
-0.014259609 0.9998984 0.00014520886 
-0.10259211 0.9935664 0.04796515 
-0.15163091 0.9884325 -0.0030518433 
-0.10508851 0.9936085 -0.041214507 
-0.060838405 0.99780595 -0.026114786 
-0.020093244 0.9993315 -0.030545063 
0.02799653 0.9991917 -0.028847516 
0.02471772 0.99969447 6.101306e-05 
-0.026102785 0.99962145 0.008696855 
-0.05126775 0.9986835 0.0017343969 
-0.049223308 0.998779 0.0042130942 
-0.06189459 0.99808145 -0.0015613456 
-0.076739244 0.99652135 -0.032502454 
-0.05729628 0.99746835 -0.042121224 
-0.015067529 0.9992091 -0.036799595 
-0.0051132008 0.99883103 -0.048066404 
-0.04980138 0.996362 -0.069157064 
-0.08830328 0.99060464 -0.10442701 
-0.082771964 0.989463 -0.11879386 
-0.06771888 0.99155885 -0.11056859 
-0.060033657 0.9915545 -0.11495925 
-0.03421375 0.993665 -0.10704912 
0.004923087 0.9971824 -0.07485358 
0.025262484 0.998742 -0.04331749 
0.02691756 0.9992776 -0.026829742 
0.01838152 0.9995868 -0.02209583 
0.077947415 0.9944871 0.07013986 
0.033544354 0.9961862 0.08054823 
-0.030663665 0.99634993 0.07966617 
-0.045842987 0.99773085 0.04931071 
0.0018400464 0.99982196 0.01878069 
0.047182627 0.99846405 -0.029043209 
0.057385817 0.9982407 -0.014914621 
-0.029050365 0.9976253 0.062449776 
-0.106889844 0.9924415 0.06028785 
-0.1101778 0.99333143 0.033964824 
-0.11003192 0.99365884 0.023135023 
-0.08328209 0.99623644 -0.024022412 
-0.029822428 0.99748886 -0.06423968 
-0.03773068 0.99811953 -0.048310623 
-0.09076328 0.9953138 -0.03335503 
-0.101135865 0.9946047 -0.023086665 
-0.08148318 0.99666786 0.003724247 
-0.07942236 0.9967467 0.013713881 
-0.08832546 0.9960898 0.0018987397 
-0.07639407 0.99706966 0.003998742 
-0.06320693 0.9979459 0.0104346275 
-0.07319246 0.99731714 0.0011889554 
-0.09666304 0.99516594 -0.017353686 
-0.0888253 0.99482405 -0.049348254 
-0.049841728 0.9960298 -0.073759876 
-0.023810571 0.9941102 -0.10572635 
-0.029171601 0.98724306 -0.15652528 
-0.028135017 0.98424745 -0.17454351 
-0.020968538 0.9866117 -0.16173322 
-0.03561948 0.9890451 -0.14325228 
-0.058467176 0.9902248 -0.12663515 
-0.0783863 0.99063003 -0.11183873 
0.122259915 0.9924978 0.0008321623 
0.06310889 0.99798286 0.0069033727 
0.010994353 0.9999136 0.007212004 
0.0375208 0.9991659 0.016119799 
0.08880995 0.99584866 0.01996043 
0.116183594 0.99237686 -0.041105703 
0.11735096 0.99116796 -0.061765473 
0.0491565 0.9986731 0.015350278 
-0.028950317 0.9968095 0.0743832 
-0.073051974 0.99357724 0.0864162 
-0.114488214 0.9917166 0.05823068 
-0.11535358 0.9932183 -0.014522055 
-0.07976394 0.9946184 -0.066120796 
-0.08414243 0.99512166 -0.051508635 
-0.10885374 0.9936102 -0.029827915 
-0.10799849 0.9941411 -0.0044525773 
-0.09727793 0.9947753 0.030968836 
-0.10204702 0.993709 0.046138555 
-0.121196225 0.9917183 0.042500317 
-0.12073625 0.9918132 0.041585457 
-0.12184239 0.99125 0.050774425 
-0.12254269 0.990741 0.05844347 
-0.09975395 0.99310815 0.06152579 
-0.06112215 0.9969997 0.047494896 
-0.025891569 0.99963564 0.007637504 
-0.017790701 0.99772346 -0.06505012 
-0.05466817 0.98945343 -0.13413951 
-0.097007185 0.98180914 -0.16321906 
-0.13312633 0.9736814 -0.18499209 
-0.17042495 0.9649652 -0.19949324 
-0.20093082 0.9612007 -0.18899736 
-0.22575706 0.96073186 -0.16133244 
0.11593406 0.97606117 -0.1840214 
0.070071705 0.9870269 -0.1444572 
0.043022066 0.9941504 -0.09906622 
0.08909625 0.99570495 -0.0251698 
0.1327757 0.99112695 0.0061665666 
0.1359213 0.98965675 -0.04588055 
0.12335394 0.9894136 -0.07645013 
0.08731903 0.99584836 -0.025719643 
0.03272819 0.9985741 0.042176656 
-0.018971054 0.99714375 0.07310608 
-0.06666146 0.9971603 0.03503762 
-0.08607995 0.99575543 -0.03257842 
-0.08740445 0.99455255 -0.056796078 
-0.09431127 0.9950136 -0.032457825 
-0.08810494 0.9961085 -0.0023236813 
-0.074981436 0.99657273 0.03493603 
-0.07996774 0.9942003 0.07191039 
-0.115007594 0.9889672 0.09336653 
-0.16304523 0.98266745 0.08821067 
-0.17496882 0.9814481 0.07839388 
-0.17324118 0.9805352 0.09240318 
-0.1516708 0.9801253 0.12786902 
-0.09219835 0.9813095 0.16891214 
-0.045868926 0.98606265 0.15992697 
-0.02425214 0.9952099 0.09470592 
-0.03537286 0.99914515 0.021398604 
-0.09705447 0.9951741 -0.01445232 
-0.16592923 0.9853143 -0.040290385 
-0.21805663 0.9710622 -0.09741445 
-0.24117833 0.9586568 -0.15103091 
-0.2479772 0.95592916 -0.15718414 
-0.25917786 0.9577051 -0.1250118 
-0.05669215 0.8328312 -0.55061626 
-0.026785368 0.8999146 -0.43524268 
0.0045904554 0.9443737 -0.32884246 
0.0734174 0.9849109 -0.15671808 
0.1175229 0.9907785 -0.06742679 
0.1190884 0.9904873 -0.068941794 
0.117297366 0.99065214 -0.0696401 
0.11863919 0.9925027 -0.029380865 
0.08322064 0.99648017 0.010081719 
0.033257846 0.99911636 0.025698824 
-0.014791839 0.9998574 -0.008147014 
-0.05279382 0.997233 -0.052338418 
-0.079078875 0.9959136 -0.043619502 
-0.07541471 0.9971513 -0.0014003782 
-0.047060866 0.9981172 0.03933722 
-0.02465155 0.9961577 0.084037 
-0.04008374 0.9918443 0.12098878 
-0.10145098 0.9834894 0.14985467 
-0.16529153 0.97456557 0.15133035 
-0.1806773 0.97354656 0.13986765 
-0.17284593 0.97220635 0.15792184 
-0.13867311 0.9687681 0.20556788 
-0.07048232 0.967197 0.2440538 
-0.025239578 0.9798128 0.19831753 
-0.009074257 0.99276495 0.119730875 
-0.038459152 0.99544126 0.087279044 
-0.11706607 0.9890022 0.09038886 
-0.18575624 0.980749 0.060216397 
-0.22884962 0.97330207 -0.017634787 
-0.23922414 0.9658372 -0.099650726 
-0.23022734 0.96456665 -0.12886678 
-0.22314249 0.969014 -0.10592227 
-0.5403686 0.038232602 -0.8405595 
-0.3730914 0.41255867 -0.83102244 
-0.26349378 0.64290106 -0.7192005 
-0.08243154 0.9302843 -0.35745806 
0.02690606 0.9866381 -0.16068995 
0.06363303 0.9932257 -0.09722988 
0.09460435 0.9939238 -0.056263775 
0.13255423 0.99117213 -0.0026937514 
0.12423924 0.9921569 0.013761829 
0.07534953 0.99709743 -0.010922111 
0.012482105 0.99813265 -0.05979496 
-0.049154144 0.99505913 -0.08626311 
-0.09068341 0.99487233 -0.04478546 
-0.069111824 0.9972776 0.025710518 
-0.018184107 0.9966188 0.080127046 
0.021190818 0.9908881 0.13301052 
0.012149967 0.98534256 0.17015432 
-0.057143237 0.9775279 0.20291398 
-0.1248148 0.9661264 0.2258785 
-0.13878097 0.9631546 0.2303759 
-0.11709495 0.96137816 0.24907987 
-0.06982286 0.95932156 0.27354527 
-0.018927606 0.9625378 0.27048606 
0.006561493 0.9811229 0.1932743 
0.009640071 0.9917328 0.12795822 
-0.041782938 0.9910626 0.12668568 
-0.12737846 0.9822456 0.13772571 
-0.18221734 0.9779245 0.10227601 
-0.22474253 0.9741339 0.023537574 
-0.24920754 0.9655733 -0.07459112 
-0.2350285 0.96327126 -0.12988526 
-0.20518737 0.9696754 -0.13276947 
-0.6580779 -0.6228944 -0.42300835 
-0.696119 -0.4751149 -0.53822315 
-0.8023222 -0.29214504 -0.52050984 
-0.4501483 0.8298117 -0.3298167 
-0.11015315 0.98531586 -0.13045655 
0.0033552046 0.99816406 -0.060474772 
0.06264466 0.9979573 -0.012528989 
0.12597181 0.9912333 0.039846797 
0.1473109 0.9883561 0.038103305 
0.11203836 0.9935612 -0.016838279 
0.0350035 0.99645644 -0.07648081 
-0.047397625 0.994113 -0.09743073 
-0.09275457 0.9947645 -0.04289755 
-0.06434257 0.9968355 0.04668106 
-0.011210022 0.9939456 0.10930083 
0.03411034 0.9853738 0.16695814 
0.040874664 0.97542346 0.2165141 
-0.015455932 0.9643942 0.26401684 
-0.066487335 0.94814616 0.31080273 
-0.05814858 0.94183534 0.33100608 
-0.00917416 0.9397149 0.34183586 
0.060141996 0.9439223 0.32464424 
0.09137513 0.95745116 0.27374777 
0.067487314 0.9793659 0.19049394 
0.02464133 0.98818594 0.1512662 
-0.047734454 0.984698 0.16760495 
-0.11987906 0.9767396 0.17778894 
-0.15993069 0.97797585 0.13410988 
-0.22581932 0.9733066 0.04098753 
-0.28530186 0.9529672 -0.10225649 
-0.25254378 0.94729817 -0.1970983 
-0.17992151 0.9537159 -0.24094442 
-0.4844308 -0.86932796 -0.09795797 
-0.53365916 -0.8222739 -0.19767079 
-0.7632287 -0.5869215 -0.27019492 
-0.5384694 0.84217507 0.028140465 
-0.12840298 0.99061227 0.046905696 
0.02450937 0.9990215 0.03681849 
0.09671717 0.9939402 0.052237473 
0.15453748 0.98528165 0.073064 
0.17680074 0.98311687 0.047146883 
0.15281029 0.98821294 -0.009178441 
0.07977264 0.9955237 -0.05068431 
-0.0007347349 0.99874747 -0.05002972 
-0.043187115 0.99897754 0.013368042 
-0.030051965 0.99508625 0.09434133 
0.0011259369 0.99098504 0.13396858 
0.038313556 0.9828899 0.18016559 
0.060356382 0.96647 0.24958557 
0.029271957 0.9477796 0.31758 
-0.0023762356 0.9283885 0.3716036 
0.017772792 0.9213598 0.38830456 
0.07473007 0.92120636 0.3818304 
0.15142255 0.93198645 0.32935175 
0.16614127 0.9521635 0.25647983 
0.10920098 0.9762164 0.18728818 
0.051562257 0.9850075 0.16462596 
-0.012326238 0.98278826 0.18432395 
-0.07542754 0.98001033 0.18409361 
-0.13130902 0.9845347 0.11597193 
-0.25632185 0.9661123 -0.030434215 
-0.3910438 0.865339 -0.3134857 
-0.3164168 0.8274608 -0.46388492 
-0.184895 0.82118666 -0.5398761 
-0.31396484 -0.9487084 0.03712686 
-0.37844732 -0.92472684 -0.040717896 
-0.6879083 -0.7032487 -0.17950904 
-0.53523016 0.8171819 0.21387528 
-0.11144115 0.9863392 0.121309616 
0.07476751 0.99531054 0.061374787 
0.17010503 0.9840824 0.051441602 
0.22910024 0.97189224 0.054209974 
0.25136974 0.96746445 0.028735958 
0.23655072 0.9716134 0.0033496404 
0.17022052 0.9853845 -0.0065008122 
0.09590043 0.9952719 0.015398164 
0.046694234 0.99527866 0.08508837 
0.026495088 0.98896414 0.14576682 
0.027499162 0.9880628 0.15157726 
0.04854921 0.9824248 0.18023472 
0.066808864 0.9652605 0.25260407 
0.044190284 0.9461564 0.32067966 
0.010860963 0.9266726 0.3757127 
0.023911795 0.91454035 0.40378717 
0.07589585 0.91277784 0.40134335 
0.15068859 0.92807096 0.3405546 
0.1688827 0.94768614 0.27086863 
0.12052692 0.97070205 0.20787229 
0.087478824 0.98117685 0.17216168 
0.045555178 0.983844 0.17313524 
-0.030042857 0.9879925 0.15155268 
-0.14069554 0.988891 0.0479515 
-0.37169394 0.9087103 -0.18997188 
-0.59009117 0.25059077 -0.76746124 
-0.39293918 -0.00052646286 -0.9195643 
-0.2266151 -0.05665813 -0.97233516 
-0.28881446 -0.9573835 0.0017427694 
-0.39372984 -0.91793 -0.04879985 
-0.7472614 -0.649363 -0.14116712 
-0.5637942 0.77714306 0.27961543 
-0.13652563 0.97772974 0.15939094 
0.06751406 0.9948938 0.07502194 
0.18569802 0.9817107 0.041958135 
0.26909244 0.96241194 0.036776107 
0.31821308 0.94772106 0.023774158 
0.3227764 0.94631916 0.01718813 
0.2656119 0.9640228 0.010503209 
0.19004127 0.98117566 0.034331545 
0.124911875 0.98635197 0.107270226 
0.07542225 0.9842744 0.15973574 
0.05427077 0.9867341 0.153005 
0.05845308 0.9829824 0.1741518 
0.05728475 0.970361 0.23477261 
0.02543902 0.9555494 0.29373157 
-0.016214019 0.93218786 0.3616114 
0.0025527617 0.9128681 0.40824702 
0.064193614 0.9125274 0.40394664 
0.12484164 0.93057406 0.34416068 
0.1362586 0.9459482 0.29430524 
0.111347295 0.9626566 0.24676728 
0.11949443 0.9725282 0.19977467 
0.10367687 0.97933525 0.17364809 
0.014871506 0.99219394 0.12381536 
-0.14605325 0.9892542 0.0066824458 
-0.44635114 0.8666064 -0.22307834 
-0.41318592 -0.72899866 -0.5457457 
-0.21137556 -0.8734723 -0.4385961 
-0.15856819 -0.87444204 -0.45848373 
-0.58231074 -0.785929 -0.20791776 
-0.71551454 -0.6717162 -0.19192803 
-0.97338253 -0.17872536 -0.14347066 
-0.5405277 0.83010554 0.13694744 
-0.13567334 0.98676693 0.08879132 
0.07022675 0.9965324 0.04462442 
0.19090444 0.9813573 0.022215936 
0.2795909 0.9599352 0.018798297 
0.34937093 0.93695956 0.0068511446 
0.37928993 0.92527765 -0.00074859656 
0.33533537 0.94207036 -0.007328303 
0.25533912 0.96659875 0.022112569 
0.1799385 0.9789673 0.09615263 
0.12576924 0.9816636 0.14324349 
0.10039319 0.9846741 0.142612 
0.08582785 0.98172504 0.16985165 
0.049776383 0.973105 0.22491983 
-0.00037865326 0.9584677 0.2852011 
-0.03344879 0.9337777 0.35628715 
0.0007403851 0.9226807 0.3855645 
0.060213335 0.9335476 0.35335994 
0.09329761 0.9515084 0.29313356 
0.09081229 0.95987123 0.26533085 
0.08588047 0.9651096 0.24736212 
0.12121723 0.9699317 0.21104239 
0.11913971 0.97752726 0.1739148 
0.039722383 0.9931582 0.109813124 
-0.10140875 0.9946767 -0.018291377 
-0.31364164 0.91084146 -0.26832238 
-0.16546156 -0.84474826 -0.50894296 
-0.06905335 -0.9714211 -0.22709629 
-0.08304385 -0.9826439 -0.16587566 
-0.850814 -0.3370405 -0.4031369 
-0.91541994 -0.07163294 -0.39607462 
-0.8558772 0.4648617 -0.22666667 
-0.39411625 0.91875905 0.023541704 
-0.06516386 0.99524134 0.07244631 
0.089591734 0.99318063 0.07460339 
0.17869544 0.9828784 0.0449241 
0.2523808 0.9672611 0.026647974 
0.32277232 0.9464745 0.0020279076 
0.36809462 0.92951995 -0.022338875 
0.34133467 0.93937 -0.03278441 
0.27803797 0.9605588 0.004660605 
0.22165798 0.9715208 0.0837575 
0.19098154 0.9731799 0.12824583 
0.17275287 0.97681254 0.12646629 
0.12931441 0.97873294 0.15924752 
0.05521072 0.97293955 0.22436687 
-0.00727858 0.95687777 0.2903998 
-0.03273203 0.9415625 0.33524436 
-0.015666347 0.9485085 0.31636402 
0.007668065 0.96706516 0.2544136 
0.005254652 0.9792573 0.20255306 
-0.0043118214 0.9774706 0.21102773 
0.030700937 0.9705596 0.23889655 
0.105700195 0.96575856 0.23693466 
0.13359402 0.96857613 0.20979239 
0.08010097 0.9876652 0.1345414 
-0.020339305 0.9997887 0.0029931783 
-0.10193788 0.9548623 -0.27901027 
-0.0022285022 -0.51529926 -0.85700744 
-0.049285132 -0.9576949 -0.28353402 
-0.08942686 -0.9905259 -0.104217514 
-0.70656896 0.6509364 -0.27756473 
-0.6753201 0.7036341 -0.2210021 
-0.5359483 0.83781755 -0.10402523 
-0.24633034 0.9684139 0.038676135 
-0.02287698 0.9936984 0.10972735 
0.07343164 0.9905318 0.11599372 
0.14356537 0.98684204 0.074375615 
0.20572853 0.97742516 0.0481225 
0.26644623 0.9637152 0.016106099 
0.32252875 0.9464132 -0.016651483 
0.32104614 0.9468862 -0.01832867 
0.27634928 0.9602326 0.039804928 
0.22819251 0.967167 0.11187585 
0.21243042 0.96862966 0.12895699 
0.20382991 0.97262645 0.111584805 
0.14719214 0.9777905 0.14919937 
0.06565123 0.9749289 0.21261126 
-0.00167313 0.9688227 0.24774972 
-0.05735612 0.9658432 0.2526999 
-0.08792116 0.9693683 0.22933626 
-0.082202144 0.9789475 0.18682756 
-0.07637012 0.9857233 0.15005773 
-0.06176465 0.9839428 0.16745703 
-0.010532265 0.9801252 0.19810028 
0.063717596 0.97323763 0.22079086 
0.11522982 0.9692561 0.21740493 
0.08796165 0.9843704 0.15257062 
0.03622131 0.9983746 0.04400389 
0.02193471 0.97986424 -0.19845681 
0.041355584 0.46141747 -0.8862188 
-0.09087848 -0.8544239 -0.5115671 
-0.1679646 -0.96412605 -0.20554566 
-0.48462963 0.8616014 -0.15092094 
-0.46643442 0.87774456 -0.10956126 
-0.37706727 0.92535365 -0.039255474 
-0.19711111 0.9782067 0.065260135 
-0.037884418 0.9886464 0.14540692 
0.04793752 0.98880446 0.14130758 
0.13030867 0.9864903 0.09928004 
0.19245201 0.9780329 0.08008709 
0.23765688 0.96951514 0.059662655 
0.2750424 0.9605106 0.042084675 
0.27318382 0.9610935 0.040865764 
0.22744675 0.97080725 0.076166 
0.17028402 0.9788915 0.11302635 
0.149164 0.98216236 0.11448743 
0.15196994 0.9819437 0.11265783 
0.12761284 0.9786472 0.1611359 
0.07478239 0.9771399 0.19901058 
-0.00790417 0.9799214 0.19922751 
-0.10102411 0.97236085 0.21049622 
-0.13729063 0.96866256 0.20698866 
-0.11854875 0.9805618 0.15634803 
-0.09653762 0.9890795 0.11136607 
-0.058788635 0.99255687 0.10665305 
-0.03484325 0.99297863 0.113046065 
0.0072997934 0.98777765 0.15569846 
0.06687494 0.98326313 0.16947374 
0.059736237 0.9888517 0.13639629 
0.04781954 0.9972673 0.05631495 
0.035307325 0.9933595 -0.109499894 
-0.0066503915 0.8453141 -0.5342284 
-0.23657301 -0.36975816 -0.8985055 
-0.44575012 -0.78183275 -0.4359411 
-0.34856337 0.92696536 -0.1387048 
-0.34610817 0.9335839 -0.092899255 
-0.30946088 0.9506673 -0.02158126 
-0.22172414 0.9727835 0.06731072 
-0.12054909 0.9836985 0.13343678 
-0.006927177 0.99224126 0.12413449 
0.12103324 0.98696715 0.10605172 
0.19961159 0.9737065 0.10977673 
0.24079755 0.9643069 0.1101306 
0.24595945 0.9625462 0.11405654 
0.22298029 0.9688423 0.10781622 
0.16461119 0.9805799 0.106613085 
0.07877769 0.99180686 0.100564644 
0.039017055 0.9951744 0.09003108 
0.06615058 0.99242806 0.10349268 
0.09152512 0.9851886 0.14500579 
0.055318113 0.9844919 0.16647993 
-0.03453406 0.9799913 0.19602138 
-0.10375959 0.96177846 0.25340903 
-0.112170324 0.96865845 0.22162746 
-0.104438744 0.98723865 0.12021827 
-0.08164529 0.9951558 0.054763924 
-0.057034276 0.9983124 0.010930864 
-0.09415844 0.99544764 0.014769122 
-0.0773613 0.9939172 0.07838193 
-0.019451423 0.9951435 0.09649379 
0.008404296 0.99556947 0.093652904 
0.01163899 0.99933213 0.034638345 
-0.012337409 0.9979039 -0.06352787 
-0.08458483 0.9545003 -0.28596273 
-0.3851236 0.73240197 -0.5614867 
-0.72332007 0.5771395 -0.37910175 
-0.20932049 0.972774 -0.09947659 
-0.22657076 0.97235525 -0.05648876 
-0.24012227 0.97071505 -0.0073168413 
-0.2232903 0.974247 0.031375337 
-0.16415933 0.9839775 0.06957009 
-0.035760976 0.9952982 0.090014495 
0.11458529 0.98660225 0.11613089 
0.19655171 0.9710075 0.13605835 
0.23150264 0.959939 0.1578728 
0.2089863 0.96035904 0.18448648 
0.15983492 0.97018003 0.18221843 
0.086997375 0.9859032 0.1429213 
0.002286661 0.9970832 0.07628819 
-0.019096937 0.9990348 0.039556645 
0.026412223 0.998477 0.048437964 
0.049850382 0.9957994 0.07680231 
0.00296181 0.9929707 0.118323475 
-0.05221929 0.9787806 0.19814546 
-0.07047952 0.9653953 0.25108695 
-0.09255926 0.98211324 0.16397068 
-0.12769695 0.99034345 0.0539756 
-0.12956898 0.9915703 0.00051842723 
-0.14476976 0.9890468 -0.028776899 
-0.16812025 0.98576516 -0.0016705958 
-0.119511545 0.9926393 0.01960145 
-0.061407737 0.9980027 0.014824432 
-0.0032736587 0.9998985 0.013870133 
-0.011908548 0.9999255 -0.0026939146 
-0.045665506 0.998308 -0.03599994 
-0.11773437 0.9800939 -0.15985824 
-0.2657064 0.92675436 -0.26556826 
-0.41794702 0.8836538 -0.21089447 
-0.13193612 0.9911356 -0.015593435 
-0.15037304 0.98853445 0.013698431 
-0.17945471 0.9833377 0.029035296 
-0.18751183 0.98208624 0.018602267 
-0.1467633 0.98847103 0.03722255 
-0.039471127 0.9962187 0.077398725 
0.0732646 0.99102986 0.11176847 
0.122197 0.98507494 0.12122493 
0.1481802 0.977438 0.15052505 
0.14275631 0.9728137 0.18235756 
0.11209888 0.9769332 0.1817566 
0.05653042 0.98920023 0.13523044 
-0.00012223913 0.9983156 0.058017667 
-0.014430734 0.999656 0.021902384 
-0.0077942964 0.9997219 0.02226231 
-0.03627399 0.99885386 0.03122815 
-0.086847134 0.9933897 0.07506301 
-0.09188693 0.98568916 0.1413284 
-0.078544006 0.9853505 0.15137774 
-0.09851377 0.9922546 0.07566981 
-0.13007009 0.99135894 0.017010806 
-0.16069505 0.98695666 -0.009683364 
-0.20647407 0.97844917 -0.002429571 
-0.1799914 0.98339385 0.023229515 
-0.110428065 0.99360067 -0.02373873 
-0.06920117 0.9956393 -0.06255919 
-0.02570242 0.99745023 -0.066577576 
-0.046050206 0.9983019 -0.035676792 
-0.097433224 0.99522936 -0.005036171 
-0.16685066 0.98496926 -0.044682372 
-0.23287907 0.96685505 -0.104683906 
-0.28567725 0.9513278 -0.1156029 
-0.10401951 0.9920532 0.07078418 
-0.13035825 0.9883429 0.07864523 
-0.16588098 0.9838195 0.06769576 
-0.17806758 0.9834597 0.0331499 
-0.14994124 0.9884234 0.023168936 
-0.070907265 0.99652106 0.04379458 
-0.0066583813 0.99807316 0.061690144 
0.015140091 0.99818027 0.05837003 
0.04712279 0.9953497 0.084014215 
0.08562276 0.9907243 0.10551838 
0.089205764 0.9896761 0.11217708 
0.0436436 0.9937721 0.10252906 
-0.0013811362 0.99761665 0.06898653 
-0.024742384 0.99818844 0.054843727 
-0.05244015 0.9972633 0.052114893 
-0.10631715 0.9934187 0.042615727 
-0.14788601 0.9869657 0.06347037 
-0.13236198 0.98734415 0.08736119 
-0.09754445 0.99363875 0.056277458 
-0.078220546 0.99693596 0.00043619535 
-0.08721383 0.9961184 -0.011905743 
-0.1282005 0.991729 -0.0061842995 
-0.17734587 0.98393196 0.020650517 
-0.14241712 0.9888291 0.04398308 
-0.08478713 0.9962494 -0.017277805 
-0.06317645 0.995956 -0.06387863 
-0.036734775 0.9973816 -0.062293626 
-0.055010986 0.9981213 -0.026977627 
-0.10736521 0.9941859 0.008199117 
-0.16732214 0.98588425 0.0059655206 
-0.19465479 0.9807996 -0.011899205 
-0.19923647 0.9796745 -0.023295414 
-0.056208424 0.99140275 0.118157364 
-0.10377879 0.98839754 0.110906616 
-0.14856188 0.9846093 0.092054166 
-0.1635077 0.9846712 0.060729098 
-0.15622196 0.9874901 0.021403741 
-0.1166418 0.99309784 0.012310599 
-0.09138865 0.99552846 0.023903059 
-0.07584831 0.99689156 0.021317853 
-0.043182604 0.9987095 0.026735071 
0.01640672 0.999458 0.028539842 
0.03443224 0.99840987 0.044633534 
-0.0056864894 0.99800557 0.0628696 
-0.035695557 0.9972088 0.06557806 
-0.06269525 0.99555045 0.07034693 
-0.099958695 0.992087 0.0759709 
-0.13911657 0.9876362 0.07225864 
-0.14062932 0.986744 0.080993064 
-0.09650576 0.99371064 0.056797598 
-0.066753395 0.99730366 -0.030486649 
-0.062540404 0.99573576 -0.06781582 
-0.060857907 0.99791133 -0.021664076 
-0.07565089 0.99713075 -0.0027057196 
-0.11156034 0.99373615 0.0065527176 
-0.092772506 0.9951352 0.033156853 
-0.069994114 0.9975393 -0.0040376387 
-0.057438202 0.9980467 -0.024569908 
-0.031638164 0.9994114 -0.0132594025 
-0.031729054 0.9993141 0.019096525 
-0.054140165 0.99845433 0.012559863 
-0.08985937 0.99592423 -0.007763969 
-0.098875895 0.99500656 -0.013623062 
-0.09223429 0.99569273 -0.00943348 
-0.010308352 0.9965641 0.0821823 
-0.059306715 0.9960835 0.065578215 
-0.093374394 0.99427295 0.05198587 
-0.102560356 0.9932994 0.053270523 
-0.12474393 0.9914633 0.037941165 
-0.1419314 0.9894702 0.028361544 
-0.14585812 0.98900974 0.024191389 
-0.13019788 0.99148595 0.0020761061 
-0.10648614 0.99392694 -0.027749488 
-0.045146275 0.9984839 -0.031494338 
-0.012374919 0.9999198 0.0027296122 
-0.03319379 0.9989333 0.032100335 
-0.06563216 0.9967244 0.047253072 
-0.12445926 0.9912373 0.044256486 
-0.17235805 0.98388004 0.047673594 
-0.1681661 0.98373026 0.06320706 
-0.10818496 0.99152476 0.07193536 
-0.03916201 0.9988951 0.02598276 
-0.029749766 0.99759614 -0.062585585 
-0.040714778 0.997485 -0.058017865 
-0.017420791 0.999768 0.012667713 
-0.010409281 0.99961245 0.025817333 
-0.014504089 0.99986684 0.0074836635 
-0.024013946 0.99951977 -0.019584255 
-0.07324424 0.99598974 -0.051379 
-0.078942455 0.9958138 -0.04607669 
-0.05879871 0.9982682 -0.0018397967 
-0.029249508 0.9982389 0.05161069 
-0.014759103 0.99955577 0.025892504 
-0.010503169 0.9998985 -0.009636812 
0.0003625559 0.99979246 -0.020372031 
0.018034663 0.9996658 -0.018522894 
0.016701661 0.99954057 0.02529141 
-0.026900554 0.9996343 0.002742185 
-0.05081431 0.99862933 -0.012549418 
-0.04600528 0.9988505 0.013464731 
-0.08047225 0.99547136 0.05060679 
-0.14127174 0.9882856 0.057740778 
-0.16462673 0.9859471 0.028399307 
-0.1467021 0.98899984 -0.018919906 
-0.11192783 0.991542 -0.06570176 
-0.039038386 0.9970586 -0.06595752 