# OOMMF OVF 2.0
# Segment count: 1
# Begin: Segment
# Begin: Header
# Title: J
# meshtype: rectangular
# meshunit: m
# xmin: 0
# ymin: 0
# zmin: 0
# xmax: 32
# ymax: 32
# zmax: 1
# valuedim: 3
# valuelabels: J_x J_y J_z
# valueunits: A/m2 A/m2 A/m2
# Desc: Total simulation time:  0  s
# xbase: 0.5
# ybase: 0.5
# zbase: 0.5
# xnodes: 32
# ynodes: 32
# znodes: 1
# xstepsize: 1
# ystepsize: 1
# zstepsize: 1
# End: Header
# Begin: Data Text
0 0 39086415128.81948
0 0 39160617709.67406
0 0 54228471991.27306
0 0 178004550149.51184
0 0 194725527663.0976
0 0 195305802049.3321
0 0 195311195131.8928
0 0 195256381720.2164
0 0 194534331427.43646
0 0 192303114591.7449
0 0 190845372502.83328
0 0 191905903064.46423
0 0 193558890062.77173
0 0 194636340138.81674
0 0 195189437173.29993
0 0 195268300128.9192
0 0 194920230219.2282
0 0 194893426645.58975
0 0 195088481983.73175
0 0 195165147577.2537
0 0 195127130299.42334
0 0 195148646727.67706
0 0 195122171615.24866
0 0 194600085642.84894
0 0 193157828721.9265
0 0 191726257962.38004
0 0 192076684406.13663
0 0 193748167113.06015
0 0 194729628673.7006
0 0 194856000367.33795
0 0 194588286607.94315
0 0 194320627149.43863
0 0 39241459652.289085
0 0 40047437686.03373
0 0 172445304428.609
0 0 191935453786.8288
0 0 195157023428.6271
0 0 195311559153.7348
0 0 195305251664.6068
0 0 195218001139.79758
0 0 194776533612.61075
0 0 193583622804.75012
0 0 192894731129.03882
0 0 193622121954.70728
0 0 194513608963.11795
0 0 195021992725.11343
0 0 195272637305.9114
0 0 195275709532.03467
0 0 195106644453.684
0 0 195107454884.80893
0 0 195190796445.74957
0 0 195209265894.8377
0 0 195155198163.15195
0 0 195100268242.2367
0 0 194940450351.3175
0 0 194363465589.5524
0 0 193399576284.31918
0 0 192695107806.4802
0 0 193066643717.1877
0 0 194205260960.93362
0 0 194848798479.4698
0 0 194813182136.58044
0 0 194330862073.48926
0 0 193967462994.08682
0 0 140387280608.18628
0 0 191595158095.444
0 0 195082812893.70883
0 0 195077135691.2511
0 0 195309804900.57364
0 0 195312438082.91733
0 0 195202848317.96545
0 0 194977902255.61343
0 0 194748463132.75717
0 0 194285921051.20633
0 0 194128581718.47946
0 0 194685738576.6905
0 0 195155322230.9437
0 0 195305304874.39328
0 0 195293831057.0837
0 0 195248934061.074
0 0 195253381694.98578
0 0 195271075796.75504
0 0 195261382840.0906
0 0 195215319331.71188
0 0 195111090254.6531
0 0 194922217488.53915
0 0 194549181979.95767
0 0 194048794313.3789
0 0 193687868182.462
0 0 193416276153.4859
0 0 193437598557.54044
0 0 193958196367.08896
0 0 194312459110.8086
0 0 193905601400.9023
0 0 192722759968.47696
0 0 191874434445.76907
0 0 156788716669.59845
0 0 182802292702.37457
0 0 193965802782.57895
0 0 195293345684.0322
0 0 195307604884.9415
0 0 195249207230.44363
0 0 195017896654.6859
0 0 194919507708.06464
0 0 194968507384.74588
0 0 194882659106.04877
0 0 194875070155.94998
0 0 195189009348.27142
0 0 195308859689.86423
0 0 195186921542.45676
0 0 195140118259.47693
0 0 195269679318.10706
0 0 195310372390.76593
0 0 195309348212.77634
0 0 195281963267.99847
0 0 195123227113.76245
0 0 194944424294.2949
0 0 194718505576.84518
0 0 194309332572.37634
0 0 194044358049.02213
0 0 194086304317.37155
0 0 193870984151.03693
0 0 193355472642.22714
0 0 193167794832.97382
0 0 193195239452.90323
0 0 192553550641.06052
0 0 191065652760.5678
0 0 190014533420.82565
0 0 140528137354.12616
0 0 170733288649.28024
0 0 190850845725.69986
0 0 194959214567.22858
0 0 195295622234.43723
0 0 195230955924.7095
0 0 194960153949.14697
0 0 195092315725.73395
0 0 195263047510.34985
0 0 195271118173.1104
0 0 195253240947.8482
0 0 195312268435.61563
0 0 195176202079.08627
0 0 195009487935.5077
0 0 195119319303.41727
0 0 195306948324.48996
0 0 195269429109.95267
0 0 195288996605.21375
0 0 195286184435.7338
0 0 195074091520.1289
0 0 194871533354.7831
0 0 194668162417.47464
0 0 194364077858.4596
0 0 194380698859.70883
0 0 194605638877.17584
0 0 194379152447.9373
0 0 193618353506.92654
0 0 193079846239.76154
0 0 193056502722.84943
0 0 192743888500.22183
0 0 191899726094.83917
0 0 191329674436.28793
0 0 176811681291.8122
0 0 188136108039.3119
0 0 193676987855.08295
0 0 194767080060.46918
0 0 195228117791.0998
0 0 195044765257.51965
0 0 194679441711.4708
0 0 195220896656.68335
0 0 195264639989.20032
0 0 195245293484.02396
0 0 195297573809.64532
0 0 195229324979.13287
0 0 195057293709.47504
0 0 195069614071.97498
0 0 195242240465.71353
0 0 195311594934.61398
0 0 195289713162.8315
0 0 195312159894.36856
0 0 195228000623.65857
0 0 194984827866.80707
0 0 194862166425.6701
0 0 194783278209.71286
0 0 194682803250.43542
0 0 194867255134.54468
0 0 195056904794.6904
0 0 194859519045.184
0 0 194234436000.80365
0 0 193843785596.7149
0 0 193978670905.54996
0 0 193993654554.71207
0 0 193720987519.05515
0 0 193554334874.47836
0 0 195144525247.3747
0 0 195077519109.57947
0 0 195271310640.24402
0 0 195292868857.77765
0 0 195282658863.39026
0 0 194685825478.94135
0 0 194736055351.10904
0 0 195307338192.32227
0 0 195007716328.4199
0 0 194962085907.69962
0 0 195197142223.51697
0 0 195216505601.83127
0 0 195205106377.11575
0 0 195270161111.5579
0 0 195306788939.76126
0 0 195311083913.8908
0 0 195299480815.39578
0 0 195226246048.95743
0 0 195024578146.66013
0 0 194839320275.19098
0 0 194887889517.13696
0 0 194972826626.18018
0 0 195046508727.19763
0 0 195212508267.30106
0 0 195268980046.29724
0 0 195105837414.86008
0 0 194658246994.94516
0 0 194468453600.16977
0 0 194672050197.77808
0 0 194767835026.8233
0 0 194705613744.29153
0 0 194688352530.46674
0 0 191191404807.9597
0 0 192772168127.9509
0 0 194597480142.97925
0 0 195232684209.37573
0 0 195230205179.03833
0 0 195102207950.30527
0 0 195193221259.0951
0 0 195312307333.80005
0 0 195177809994.23944
0 0 195116725240.65988
0 0 195217452700.48596
0 0 195261959567.34204
0 0 195296661780.4625
0 0 195311512316.32095
0 0 195298228203.3123
0 0 195223361578.57367
0 0 195102293210.568
0 0 194909652260.74615
0 0 194717600559.4009
0 0 194761890752.5206
0 0 195011578795.1409
0 0 195175442216.89035
0 0 195250133732.16968
0 0 195298831821.3508
0 0 195285199653.1822
0 0 195080037067.81427
0 0 194700945377.68408
0 0 194649096061.10892
0 0 194884356211.109
0 0 194973928134.1834
0 0 194957649371.98856
0 0 194977169412.61633
0 0 193013284127.47693
0 0 194271474168.61258
0 0 195174908071.3914
0 0 195292103443.38882
0 0 195131398766.61078
0 0 195068783810.93008
0 0 195076603004.9567
0 0 195194878091.6926
0 0 195297704465.81497
0 0 195309755560.0509
0 0 195277579638.74597
0 0 195194785244.01288
0 0 195219745403.91934
0 0 195248957692.65128
0 0 195139913523.60938
0 0 194976083254.56
0 0 194896029747.0455
0 0 194784108505.86212
0 0 194751327133.17133
0 0 194935539228.7742
0 0 195183104663.25992
0 0 195283295869.63248
0 0 195294092473.84204
0 0 195273521777.0685
0 0 195169619253.9036
0 0 194931150590.21323
0 0 194689795338.2215
0 0 194700586025.77072
0 0 194871954073.89774
0 0 194880627100.40726
0 0 194799078195.5864
0 0 194776986489.353
0 0 195007633302.75385
0 0 195308228152.9225
0 0 195287083422.25958
0 0 195130504807.41986
0 0 194486000194.70935
0 0 193847729055.53964
0 0 193511515356.10062
0 0 193920618700.56927
0 0 194934694556.63113
0 0 195258445581.78622
0 0 195129542280.12595
0 0 194704909637.20627
0 0 194703689243.682
0 0 194917958164.55637
0 0 194914700997.58374
0 0 194945244735.32132
0 0 195055164272.0024
0 0 195089220308.067
0 0 195135437657.44498
0 0 195225944284.52832
0 0 195293893610.71262
0 0 195304165658.66696
0 0 195267415068.84592
0 0 195169355824.18344
0 0 195083703108.51218
0 0 195043767199.68036
0 0 194921059621.56787
0 0 194795378269.27072
0 0 194735200461.4975
0 0 194580819226.50198
0 0 194349839559.3727
0 0 194195453517.38242
0 0 191631930042.74994
0 0 188223335597.26526
0 0 192496357488.84894
0 0 194432364183.7268
0 0 194210901952.73956
0 0 193768222756.84973
0 0 193326280557.6438
0 0 192822603202.8575
0 0 193604986234.2873
0 0 194532476829.81763
0 0 194473750305.48114
0 0 193927593322.4598
0 0 194022840092.44098
0 0 194490216454.7529
0 0 194735538914.69168
0 0 194990175168.55594
0 0 195219138615.96106
0 0 195300600755.00122
0 0 195312354806.2862
0 0 195311394106.60666
0 0 195312469551.23456
0 0 195311524804.35806
0 0 195302975314.38367
0 0 195288993030.19254
0 0 195292649558.4436
0 0 195283646525.18195
0 0 195162287357.86414
0 0 194905483743.3989
0 0 194632621480.39484
0 0 194379369791.41702
0 0 194066536147.4396
0 0 193794269137.5146
0 0 43824550941.68209
0 0 74784120414.70447
0 0 151989449026.2595
0 0 187258996183.54868
0 0 192951266372.20657
0 0 194123969159.34457
0 0 194431643147.02274
0 0 193694358615.8565
0 0 192896006226.4655
0 0 193342192096.01968
0 0 193768311774.60437
0 0 193750056004.1065
0 0 193902646719.63437
0 0 194206411323.6251
0 0 194467931923.59995
0 0 194871657601.65057
0 0 195228445599.0771
0 0 195312143277.3691
0 0 195297373687.14825
0 0 195311953077.75723
0 0 195312476367.22372
0 0 195270434968.23215
0 0 195159026862.36493
0 0 195144953768.97324
0 0 195221980219.32153
0 0 195308196333.46497
0 0 195235867027.09186
0 0 194947990023.921
0 0 194578732115.8825
0 0 194322013417.09244
0 0 194046796511.90897
0 0 193796824713.29453
0 0 40285822661.37477
0 0 44273748657.97824
0 0 73863373778.894
0 0 162447091429.23248
0 0 189226818467.09033
0 0 193908539018.55533
0 0 194840100869.71283
0 0 194358912256.3876
0 0 192954963688.74832
0 0 192857536977.74603
0 0 193780462803.38742
0 0 194242258726.25992
0 0 194286191255.9665
0 0 194239737797.15634
0 0 194345014686.27698
0 0 194771713269.22552
0 0 195187402961.56778
0 0 195304867851.3198
0 0 195296443916.9264
0 0 195213485750.16168
0 0 195295186626.31836
0 0 195112967781.4818
0 0 194629748796.04214
0 0 194755125772.95456
0 0 195105959409.29678
0 0 195289567323.69092
0 0 195287322180.84503
0 0 195041099093.05844
0 0 194589225386.7925
0 0 194240691384.7073
0 0 193995430979.44144
0 0 193889098258.76736
0 0 39934099668.28752
0 0 42588166979.296196
0 0 65485526453.62153
0 0 155178479721.0221
0 0 188992084917.2412
0 0 193944511033.86032
0 0 194730143517.59912
0 0 194463048835.01666
0 0 193405442700.51736
0 0 193294763281.53088
0 0 194304272993.95947
0 0 194783024526.18973
0 0 194700867087.49362
0 0 194500525256.3222
0 0 194537421293.38855
0 0 194907301938.7786
0 0 195226926255.16983
0 0 195285193994.85892
0 0 195135887069.17032
0 0 194849006106.29544
0 0 195223804509.90213
0 0 195055927856.14386
0 0 194531303757.36926
0 0 194823499502.6515
0 0 195113409373.85922
0 0 195235639808.61462
0 0 195312435633.5337
0 0 195091877476.22745
0 0 194509535843.10315
0 0 193965112641.37595
0 0 193753257046.60083
0 0 193953338065.16904
0 0 42240211077.91273
0 0 48692092113.19767
0 0 90135678195.92268
0 0 170899845745.33566
0 0 193094406209.3638
0 0 194815623690.57578
0 0 194766216258.23114
0 0 194689635665.62906
0 0 194397875730.08276
0 0 194396908128.4844
0 0 194894936840.65295
0 0 195073427374.05414
0 0 194926685422.18597
0 0 194753349446.62448
0 0 194803234671.6215
0 0 195103011174.06876
0 0 195291203972.64136
0 0 195284328059.09518
0 0 194954692788.6977
0 0 194559152464.769
0 0 195168464060.09094
0 0 195134573019.97748
0 0 194822956486.49124
0 0 195036571567.53528
0 0 195128513928.089
0 0 195190942767.69327
0 0 195312367076.29895
0 0 194989609027.39044
0 0 194241841092.2974
0 0 193555048892.2229
0 0 193702012865.48785
0 0 194591229158.4292
0 0 77829839783.85416
0 0 98422266270.40222
0 0 153874343125.79437
0 0 191040315662.49615
0 0 195307590386.60083
0 0 195312282885.85703
0 0 195185102593.37946
0 0 195234094195.6695
0 0 195236535870.08398
0 0 195161982455.1391
0 0 195218808871.47018
0 0 195226148315.64523
0 0 195095920113.2901
0 0 194944009642.9138
0 0 194973226464.33206
0 0 195212593999.00552
0 0 195307827898.70645
0 0 195250876462.8026
0 0 194759824174.11472
0 0 194502441730.4328
0 0 195188648256.25684
0 0 195212419560.05386
0 0 195099355547.51868
0 0 195200521394.3327
0 0 195161154769.26828
0 0 195174327427.61145
0 0 195310835600.9006
0 0 194898930518.79303
0 0 193958054497.68094
0 0 192872470462.36008
0 0 193525268009.8551
0 0 195237661041.80887
0 0 168982865511.58823
0 0 176132261040.86603
0 0 190899698317.04715
0 0 195296586247.0158
0 0 194978881544.58755
0 0 195203211743.59872
0 0 195312488586.41272
0 0 195267993201.97577
0 0 195240727561.26627
0 0 195309586986.2984
0 0 195311839996.6897
0 0 195312497746.17123
0 0 195270399022.22018
0 0 195122451323.62784
0 0 195090603522.84592
0 0 195244933368.92438
0 0 195276847432.77722
0 0 195022246990.07428
0 0 194393052580.05066
0 0 194524875791.40765
0 0 195223486001.32678
0 0 195277294415.26163
0 0 195274147733.72836
0 0 195302131046.9351
0 0 195247716044.51257
0 0 195236469213.78043
0 0 195281548338.4293
0 0 194590712333.24567
0 0 192650415500.11813
0 0 188131644649.35098
0 0 185007712128.7934
0 0 191896068909.65927
0 0 193183369646.21588
0 0 194044289288.47028
0 0 195263592100.5376
0 0 195109558141.6468
0 0 194885704810.78513
0 0 195129750604.45447
0 0 195283942939.6999
0 0 195160473799.93323
0 0 195154719820.7197
0 0 195272557730.48862
0 0 195222943104.0267
0 0 195172741587.05908
0 0 195292002560.22693
0 0 195283121951.51047
0 0 195242289742.205
0 0 195273511992.86792
0 0 195169509236.4948
0 0 194617038968.05447
0 0 194059726504.3022
0 0 194496268252.4291
0 0 195183040078.56607
0 0 195312185258.24875
0 0 195304300603.31485
0 0 195270057301.20148
0 0 195308731369.40182
0 0 195312475786.05936
0 0 195157026214.15872
0 0 194040436018.41904
0 0 189032834127.7817
0 0 168460160277.82193
0 0 110569030192.7546
0 0 55297495377.92918
0 0 195204353883.7588
0 0 195282566303.13358
0 0 195257373470.62103
0 0 195094077624.31122
0 0 195008913861.069
0 0 195225106854.2507
0 0 195312465758.17773
0 0 195289970000.81003
0 0 195302866421.71182
0 0 195308713872.4613
0 0 195160866620.6767
0 0 194994051920.361
0 0 195176627642.09122
0 0 195298027008.0449
0 0 195309361489.9258
0 0 195312203719.56558
0 0 195168314503.00763
0 0 194577371141.89496
0 0 194115810207.59262
0 0 194484332026.0308
0 0 195095556590.4082
0 0 195271551463.02264
0 0 195208616799.22412
0 0 195061820832.84555
0 0 195145945329.36414
0 0 195217211940.7362
0 0 194989071033.89606
0 0 193537599093.32214
0 0 183796302827.54947
0 0 138902239461.51373
0 0 50786403857.28701
0 0 40637266462.52485
0 0 195302286856.51898
0 0 195311413738.60428
0 0 195278946452.9765
0 0 195251742141.67834
0 0 195243885582.37054
0 0 195304939566.5565
0 0 195176403747.04382
0 0 195250629889.38715
0 0 195214589490.06815
0 0 195262586491.08908
0 0 195283277525.6923
0 0 195195126105.0056
0 0 195241580941.48944
0 0 195245637516.5746
0 0 195185222430.6595
0 0 195231970136.25668
0 0 195305056902.2536
0 0 195003118071.44327
0 0 194526635481.01187
0 0 194610731004.29584
0 0 195081022267.2761
0 0 195236910612.58276
0 0 195093337146.024
0 0 194752309271.07483
0 0 194766269042.0836
0 0 194969571688.98703
0 0 194960114317.54163
0 0 193902129888.5251
0 0 182520742507.55353
0 0 122309715961.811
0 0 45336971632.83324
0 0 40410727946.63542
0 0 195310548288.39465
0 0 195310856075.00412
0 0 195312490630.25244
0 0 195298346603.5829
0 0 195228803673.46414
0 0 194723656234.6664
0 0 194601611656.74832
0 0 194943430121.31696
0 0 194869468249.56567
0 0 195015830274.11566
0 0 195241901959.85577
0 0 195278316337.73328
0 0 195306354848.52353
0 0 195254053168.58752
0 0 195018342244.50552
0 0 195036597185.57504
0 0 195276051457.29276
0 0 195212494993.6239
0 0 194750780121.3995
0 0 194764308658.23264
0 0 195149492976.9539
0 0 195239062764.80722
0 0 195028723389.4667
0 0 194562936067.6306
0 0 194420896586.7534
0 0 194721818226.10513
0 0 195085894730.59326
0 0 194885876347.36337
0 0 188429755650.21713
0 0 133764997937.87105
0 0 47646629047.716484
0 0 41197126990.198875
0 0 194847179002.08246
0 0 194817955218.0168
0 0 194699215479.59833
0 0 194447494249.83646
0 0 194037550756.59958
0 0 193624226839.1087
0 0 194534810036.00223
0 0 194949415002.9862
0 0 194838683138.2096
0 0 194915502406.93542
0 0 194906943591.5546
0 0 194836281290.75208
0 0 195167780731.64545
0 0 195272552185.24927
0 0 194985674149.49948
0 0 195031383679.11826
0 0 195277815441.05734
0 0 195174884930.03033
0 0 194594509700.95682
0 0 194604461978.69714
0 0 195032878989.7895
0 0 195172881775.93826
0 0 195078658631.87006
0 0 194764882501.50183
0 0 194326726364.8801
0 0 194415685882.85117
0 0 195123702687.2742
0 0 195304100570.13257
0 0 194351469466.15457
0 0 175887083859.86798
0 0 80764343245.61319
0 0 46643023614.08237
0 0 192799828959.64185
0 0 193026235331.3901
0 0 193286642431.18002
0 0 193717510373.43848
0 0 194047644060.7568
0 0 194726493377.42963
0 0 195246972531.94376
0 0 195255043240.39505
0 0 195158430183.72385
0 0 195016759274.1296
0 0 194558087560.22287
0 0 194409274735.48975
0 0 195091716100.77936
0 0 195276433487.3241
0 0 195064471823.5874
0 0 195147277662.44467
0 0 195310709957.16605
0 0 194970747510.80722
0 0 194022790630.00812
0 0 193910052328.8516
0 0 194563109746.41785
0 0 195029634838.9132
0 0 195196310024.94635
0 0 195080066856.23465
0 0 194456613289.7066
0 0 194160744224.94208
0 0 195088072601.78918
0 0 195230018983.88165
0 0 195198476819.76712
0 0 194926469810.282
0 0 188641533687.1615
0 0 184925697688.46942
0 0 193767557017.6405
0 0 194256457113.46588
0 0 194836902240.23666
0 0 195219546347.1828
0 0 195312413228.32867
0 0 195215777491.67264
0 0 195176109876.55023
0 0 195289302088.30804
0 0 195309490819.09467
0 0 195127978468.21588
0 0 194550708598.6664
0 0 194522922173.17392
0 0 195150583546.1144
0 0 195294273727.2269
0 0 195210271935.40683
0 0 195268663160.8302
0 0 195297741888.68292
0 0 194782638073.44482
0 0 193673607016.9691
0 0 193404086478.31967
0 0 194103234992.74475
0 0 194847799308.20245
0 0 195196559498.85834
0 0 195148606053.19806
0 0 194590987986.5409
0 0 194261993065.65674
0 0 195106431559.55353
0 0 195106494798.7721
0 0 194366682042.26587
0 0 194465632939.96695
0 0 195049011580.19928
0 0 195226034455.0397
0 0 195312476951.2891
0 0 195225157574.1338
0 0 194810745202.30048
0 0 194289512156.47824
0 0 194098133149.6245
0 0 194328239789.8385
0 0 194872857132.87057
0 0 195158535296.41168
0 0 195293508458.10074
0 0 195224989642.27713
0 0 194880080364.82248
0 0 194901189785.99686
0 0 195217309243.22284
0 0 195312475712.8059
0 0 195311595010.10077
0 0 195309050869.9485
0 0 195251497558.51904
0 0 194868738985.11298
0 0 194102642142.86874
0 0 193758953505.80188
0 0 194098061806.13898
0 0 194665196476.84082
0 0 195040357762.826
0 0 195018648671.87924
0 0 194625608617.8032
0 0 194541582014.92184
0 0 195170721189.2265
0 0 195119368089.41913
0 0 194169915880.34158
0 0 193682942950.8242
0 0 194004306840.6326
0 0 194436974403.99692
0 0 194645324508.92117
0 0 194057654740.40753
0 0 193084414837.39233
0 0 192504157663.05972
0 0 192852123192.83743
0 0 193935292683.35812
0 0 194828837293.09558
0 0 195162816822.8069
0 0 195297053509.47528
0 0 195278975509.44632
0 0 195187686075.8192
0 0 195230881194.9792
0 0 195301504609.44302
0 0 195308467426.90475
0 0 195266178504.40295
0 0 195231614631.03134
0 0 195238216603.31024
0 0 195146758715.21823
0 0 194855783221.53607
0 0 194492994883.2161
0 0 194383953926.50623
0 0 194603015054.64844
0 0 194873701504.03354
0 0 194886813300.2831
0 0 194705637818.0446
0 0 194826571859.91443
0 0 195241502182.7449
0 0 195199407222.26935
0 0 194685215905.22525
0 0 194490811674.82208
0 0 194792517401.7165
0 0 195098053815.30652
0 0 194005445212.42215
0 0 193394267627.5108
0 0 192475139077.925
0 0 191976903351.60837
0 0 192551459656.2507
0 0 193912820504.8015
0 0 194902443996.75192
0 0 195239554605.03745
0 0 195309950139.60403
0 0 195305706051.33914
0 0 195309567314.83228
0 0 195299787435.62552
0 0 195269373696.80478
0 0 195311446232.18533
0 0 195240923460.1743
0 0 195218484594.41513
0 0 195298283005.32648
0 0 195311795476.6156
0 0 195276473609.593
0 0 195046083334.81055
0 0 194778085824.174
0 0 194810790371.6102
0 0 194960214674.14935
0 0 194963529772.7819
0 0 194893697572.22903
0 0 195055601723.18634
0 0 195291277242.6712
0 0 195256652597.0278
0 0 195150673323.85535
0 0 195250912744.6671
0 0 195295564816.59415
0 0 195089503081.90848
0 0 193731207096.86066
0 0 193313487042.7292
0 0 192695335064.89285
0 0 192403474687.39978
0 0 193036177926.51068
0 0 194255939183.74976
0 0 195067337278.6739
0 0 195289033992.28763
0 0 195311309811.4977
0 0 195309030727.84198
0 0 195245322696.13324
0 0 195020802523.47128
0 0 194941507467.33362
0 0 195201756286.4169
0 0 195312429107.89697
0 0 195312110546.7984
0 0 195240322746.168
0 0 195153717369.4445
0 0 195273434939.18283
0 0 195257454380.48157
0 0 195032173345.81396
0 0 195044375640.864
0 0 195164583268.75348
0 0 195212243563.99164
0 0 195226201590.16913
0 0 195284840396.37674
0 0 195312432830.22385
0 0 195310326601.1029
0 0 195295647426.15186
0 0 195048664142.56778
0 0 194271445596.5053
0 0 193375016903.1874
0 0 194513016245.36115
0 0 194240913618.86218
0 0 193849706805.55188
0 0 193753120676.7089
0 0 194241288468.04233
0 0 194894327810.60214
0 0 195220754508.27866
0 0 195280206169.8208
0 0 195250414741.69113
0 0 195141664107.16473
0 0 194811273266.63937
0 0 194253371965.7855
0 0 194158590945.14648
0 0 194705134944.66974
0 0 195054353348.60333
0 0 195009008395.24078
0 0 194767286381.8716
0 0 194756562444.5431
0 0 195134328879.0711
0 0 195303723427.81833
0 0 195118855552.72214
0 0 195105334606.00357
0 0 195229849272.51715
0 0 195306693398.84927
0 0 195303408299.9176
0 0 195268591475.34467
0 0 195297673251.87018
0 0 195217147459.4911
0 0 194484623398.66534
0 0 192896904243.29547
0 0 190314606169.9922
0 0 188362440112.84634
0 0 195302719858.29803
0 0 195158925931.94824
0 0 194800647789.56903
0 0 194689724061.58582
0 0 194959668555.76993
0 0 195184221475.91278
0 0 195226977863.21478
0 0 195121367364.9802
0 0 194879139815.5258
0 0 194563942903.60617
0 0 193993547994.10062
0 0 193159747139.64993
0 0 193007450512.8585
0 0 193754094214.155
0 0 194236610357.19058
0 0 194159601034.14758
0 0 194063348188.09293
0 0 194451673502.38464
0 0 195058028789.31235
0 0 195312188832.9611
0 0 195217973180.0494
0 0 195168413723.34473
0 0 195243317344.6601
0 0 195311945956.65433
0 0 195266435749.05768
0 0 195219211324.6809
0 0 195312378956.15677
0 0 194721445173.83722
0 0 192338075855.05438
0 0 187684999469.43646
0 0 179386912498.03906
0 0 173503357380.1006
0 0 195055837530.76187
0 0 195296574386.83148
0 0 194775111232.79016
0 0 194652454916.9324
0 0 195035245161.44693
0 0 195210246091.87875
0 0 195148625341.3972
0 0 194851016628.64703
0 0 194412750194.19592
0 0 193927108746.77692
0 0 192898372587.80026
0 0 191096420664.314
0 0 190294056782.58353
0 0 191430480279.38477
0 0 192613891845.3128
0 0 193152339709.87482
0 0 193703172294.93295
0 0 194444894947.45758
0 0 195004949051.14108
0 0 195257840615.78177
0 0 195312483235.1969
0 0 195292621935.4471
0 0 195277423746.98883
0 0 195293552672.3111
0 0 195312483818.01257
0 0 195309410986.6754
0 0 195209170139.88962
0 0 193786578593.6312
0 0 189483315095.79614
0 0 178503967438.91458
0 0 139641748596.0765
0 0 77118726792.22801
0 0 194935529018.0415
0 0 195101717809.3084
0 0 193576543262.07742
0 0 193717623808.327
0 0 194778789199.41772
0 0 195159002144.86514
0 0 195095292657.02652
0 0 194749671981.18698
0 0 194222148445.17776
0 0 193434423445.9465
0 0 191354733295.03986
0 0 187506723359.7291
0 0 185435194538.36172
0 0 187488888686.0288
0 0 190479003154.3072
0 0 192467911374.32138
0 0 193795921931.13702
0 0 194593162913.83105
0 0 194918267574.8854
0 0 195063644638.63263
0 0 195206304935.13428
0 0 195296562357.3099
0 0 195303089887.80728
0 0 195223071756.28058
0 0 195211114153.0653
0 0 195249145227.01776
0 0 194945197228.90472
0 0 192951256191.31146
0 0 187236249713.20328
0 0 164568924005.19006
0 0 44529090314.22023
0 0 39409619561.230774
# End: Data Text
# End: Segment
