# OOMMF OVF 2.0
# Segment count: 1
# Begin: Segment
# Begin: Header
# Title: m
# meshtype: rectangular
# meshunit: m
# xmin: 0
# ymin: 0
# zmin: 0
# xmax: 1.6e-07
# ymax: 1.6e-07
# zmax: 5e-09
# valuedim: 3
# valuelabels: m_x m_y m_z
# valueunits: 1 1 1
# Desc: Total simulation time:  2.4101724043026936e-11  s
# xbase: 2.5e-09
# ybase: 2.5e-09
# zbase: 2.5e-09
# xnodes: 32
# ynodes: 32
# znodes: 1
# xstepsize: 5e-09
# ystepsize: 5e-09
# zstepsize: 5e-09
# End: Header
# Begin: Data Text
0.31354287 -0.646897 -0.69513685 
0.31870988 0.050689112 -0.946496 
0.15725462 0.80991495 -0.5650742 
0.07645203 0.96049684 -0.26758364 
0.07475491 0.9855115 -0.15224642 
0.09757625 0.99107367 -0.09084064 
0.100115925 0.99449074 -0.031066775 
0.06270951 0.9978749 0.017697968 
0.0125468 0.9993069 0.03504959 
-0.027702278 0.99939454 0.021052038 
-0.04153789 0.99855494 -0.034100305 
0.0018265272 0.99512285 -0.09862678 
0.069711134 0.991388 -0.11086092 
0.087006085 0.9927882 -0.08247241 
0.040924262 0.9967944 -0.06874769 
-0.015141852 0.9963194 -0.08437122 
-0.044905115 0.9928294 -0.11078585 
-0.04928417 0.98981863 -0.13352965 
-0.04329765 0.9898545 -0.13532671 
-0.046384566 0.99301434 -0.10849468 
-0.060743455 0.9956871 -0.070125416 
-0.07029091 0.99717104 -0.026631301 
-0.084042564 0.99632674 0.016429767 
-0.11685715 0.99228936 0.041306563 
-0.15496922 0.9864548 0.053772092 
-0.16991866 0.9825492 0.07566212 
-0.15167373 0.98287547 0.10464657 
-0.12606321 0.98610944 0.10815008 
-0.11862247 0.99086726 0.064117044 
-0.13141584 0.99121404 0.014991264 
-0.15814534 0.9873718 0.009335475 
-0.18326943 0.9826572 0.028233187 
0.26526335 -0.26200613 -0.9278945 
0.15956368 0.4737172 -0.8661013 
0.038419086 0.90226525 -0.42946643 
-0.0022469177 0.98098236 -0.19408438 
0.007917091 0.9943327 -0.106018454 
0.038712922 0.9974846 -0.059378188 
0.04854185 0.99867654 -0.017001124 
0.01548801 0.9997934 0.013170983 
-0.030771868 0.9993974 0.01606021 
-0.05417497 0.9985143 -0.005857267 
-0.04254455 0.9977051 -0.05267532 
0.007454651 0.99512607 -0.098328695 
0.06051824 0.9927026 -0.10430264 
0.067169584 0.9941935 -0.08406873 
0.02723206 0.99674785 -0.075844005 
-0.018396083 0.99600244 -0.087411575 
-0.044229127 0.99355423 -0.10437316 
-0.049143188 0.9918324 -0.1177009 
-0.040192064 0.99255854 -0.114944704 
-0.032611113 0.99555945 -0.088306665 
-0.032732658 0.99815017 -0.05123458 
-0.03277285 0.99940395 -0.01084973 
-0.042283274 0.9987529 0.026548332 
-0.07232886 0.99638957 0.044458017 
-0.10802282 0.9929842 0.048099525 
-0.12448578 0.9905604 0.057388835 
-0.11428349 0.9907483 0.073191985 
-0.09660206 0.9927976 0.07085941 
-0.09107287 0.9952772 0.033602778 
-0.100108854 0.9949589 -0.0059216265 
-0.11973981 0.99275607 -0.009898973 
-0.13652901 0.9906175 0.006063372 
0.078101575 0.6240322 -0.77748567 
0.012381683 0.8546476 -0.5190609 
-0.036811475 0.9673906 -0.25059998 
-0.057290457 0.9922637 -0.11013928 
-0.049855474 0.99737 -0.05260704 
-0.020876704 0.9994806 -0.024550699 
-0.009279346 0.9999502 -0.0037006533 
-0.03679117 0.9993025 0.006402417 
-0.07142185 0.99743754 -0.00417733 
-0.071876876 0.9968777 -0.032691408 
-0.034531027 0.9968805 -0.07097269 
0.017791359 0.9952563 -0.09564737 
0.049501695 0.9946198 -0.091000475 
0.04023385 0.996276 -0.07625883 
0.002949417 0.9972201 -0.07445408 
-0.03255064 0.9959367 -0.083968 
-0.050502226 0.9944508 -0.09228861 
-0.05150275 0.9939433 -0.09707878 
-0.0366749 0.99485517 -0.0944365 
-0.015046406 0.9969925 -0.07602308 
0.0029161123 0.99893385 -0.04607398 
0.014303102 0.9998506 -0.009716164 
0.00784433 0.99967206 0.024379991 
-0.021899173 0.9989952 0.039103363 
-0.056832068 0.99767363 0.037651204 
-0.07612236 0.9964071 0.037127227 
-0.0759085 0.9963024 0.04024195 
-0.06899097 0.99711686 0.031596426 
-0.06770438 0.9977029 0.0022406839 
-0.07463871 0.9968629 -0.02633422 
-0.08954977 0.99555695 -0.029106803 
-0.102205984 0.99461085 -0.017416159 
0.03725325 0.91843134 -0.39382255 
0.0036776722 0.96432966 -0.26467896 
-0.027931992 0.98972064 -0.14025971 
-0.049772758 0.9968755 -0.061334122 
-0.050274648 0.9985497 -0.019260777 
-0.03303962 0.9994474 0.003655132 
-0.032100353 0.9993536 0.016183924 
-0.05866113 0.99815863 0.015438476 
-0.081302 0.99667585 -0.0052389465 
-0.06804255 0.99681276 -0.041650016 
-0.023615299 0.99680614 -0.0762886 
0.019830229 0.9962102 -0.084687784 
0.0327164 0.9971045 -0.06864502 
0.013166078 0.9983905 -0.055165973 
-0.021042218 0.9980922 -0.05804592 
-0.047664545 0.996534 -0.0681778 
-0.0572603 0.9956792 -0.07310446 
-0.05499618 0.99560666 -0.07578187 
-0.037370697 0.995951 -0.08176279 
-0.004024679 0.9967655 -0.08026428 
0.030363737 0.99762523 -0.06182214 
0.049977724 0.99832046 -0.02930073 
0.04234224 0.99909663 0.0036226253 
0.010498821 0.9997493 0.019777143 
-0.024296017 0.9994782 0.021282073 
-0.046654094 0.9987032 0.020385189 
-0.056766823 0.9982453 0.016848927 
-0.06123305 0.99811506 0.004120605 
-0.06386916 0.99781847 -0.016707737 
-0.06857339 0.9970802 -0.03359784 
-0.080420315 0.9961456 -0.035024233 
-0.09140857 0.9954173 -0.028089844 
-0.0033836816 0.9820801 -0.1884337 
-0.012530729 0.990253 -0.13871607 
-0.02201386 0.9958778 -0.08799374 
-0.028652245 0.9985409 -0.04577399 
-0.022412548 0.99969596 -0.0102772955 
-0.014005649 0.9997678 0.016383713 
-0.022256458 0.99932957 0.029069286 
-0.04287779 0.9987614 0.025243327 
-0.055982117 0.9984287 0.0024991177 
-0.046977103 0.9982954 -0.034632064 
-0.019011091 0.9977218 -0.06472989 
0.007242308 0.9979371 -0.063790485 
0.010013085 0.999056 -0.042272817 
-0.010976407 0.9995156 -0.029123941 
-0.040673997 0.9985707 -0.034673974 
-0.060405787 0.99694395 -0.049538136 
-0.06308067 0.9962762 -0.058775306 
-0.05782592 0.9962665 -0.06410353 
-0.038898595 0.9962221 -0.077643156 
0.0017600984 0.9961069 -0.0881357 
0.046128515 0.9959668 -0.07695656 
0.06836088 0.99655294 -0.047001585 
0.05732914 0.99823225 -0.01568433 
0.023297565 0.9997251 0.002633567 
-0.011604364 0.99987954 0.0103107 
-0.036087703 0.99926966 0.012565853 
-0.053030152 0.9985833 0.0043828436 
-0.06404669 0.9978846 -0.011158143 
-0.0667196 0.99752635 -0.0221269 
-0.06667417 0.9974547 -0.025272656 
-0.073975116 0.9969923 -0.02311246 
-0.083352566 0.99633 -0.019463714 
-0.26874825 0.96054703 -0.0715817 
-0.19749293 0.978335 -0.062106762 
-0.117744006 0.99166626 -0.05229217 
-0.062155295 0.9974776 -0.034281958 
-0.02386577 0.9996927 -0.0067182425 
-0.0076679625 0.99983436 0.016513782 
-0.008436865 0.9996264 0.025998402 
-0.0132680265 0.9996682 0.022079688 
-0.019112024 0.99980295 0.0053686425 
-0.025320353 0.999456 -0.021135703 
-0.02479152 0.998742 -0.043586925 
-0.016360372 0.99893874 -0.04305666 
-0.01601109 0.99955964 -0.02498553 
-0.031718697 0.99943423 -0.011189173 
-0.053445473 0.99845916 -0.014934154 
-0.064615615 0.997319 -0.034348685 
-0.05939202 0.99689215 -0.051756702 
-0.050448794 0.9967953 -0.06208188 
-0.03309874 0.9963858 -0.0782296 
0.004282766 0.995852 -0.09088687 
0.04500807 0.9957216 -0.08070204 
0.06322207 0.99664277 -0.052020676 
0.05089525 0.9984641 -0.021889515 
0.019406378 0.9998117 4.567196e-05 
-0.012127644 0.999818 0.014722605 
-0.03569751 0.99918604 0.018789632 
-0.055823814 0.99842703 0.005207011 
-0.069652736 0.99748474 -0.013143667 
-0.069280095 0.9974834 -0.0150727965 
-0.06131438 0.99810636 -0.0049225735 
-0.061101533 0.99812865 0.002421274 
-0.067539535 0.9977042 0.004974432 
-0.8354478 0.542523 0.08772569 
-0.6017386 0.7967163 0.056159906 
-0.31942022 0.94756013 0.010029313 
-0.14801022 0.9889667 -0.006152317 
-0.056533825 0.9983998 0.0013562596 
-0.014851628 0.9998217 0.011663649 
0.0047447057 0.99984074 0.017209612 
0.013884352 0.999763 0.016772175 
0.0051154634 0.9999527 0.008285648 
-0.02031366 0.9997663 -0.0074037667 
-0.040646534 0.99886113 -0.024989763 
-0.041385315 0.99872494 -0.028911466 
-0.038668726 0.9991314 -0.015533769 
-0.045740053 0.99895316 -0.00069552095 
-0.055517588 0.99845433 -0.0025875282 
-0.055107914 0.9981446 -0.02589412 
-0.04254677 0.99779266 -0.050986577 
-0.033275973 0.9972992 -0.06547627 
-0.024219552 0.99656856 -0.0791497 
-0.0016667533 0.99618953 -0.087199084 
0.025495289 0.9969014 -0.074414924 
0.038469188 0.9982332 -0.045285203 
0.028630972 0.9994888 -0.014232833 
0.00323138 0.99992 0.012236799 
-0.02190184 0.99925494 0.031780597 
-0.040265508 0.9985778 0.03494655 
-0.05770391 0.99822116 0.01499584 
-0.07055592 0.99747986 -0.007477084 
-0.06751725 0.9977083 -0.0044242814 
-0.053484824 0.9984667 0.014276768 
-0.046831828 0.9985718 0.02571282 
-0.050364558 0.9983111 0.028955331 
-0.8684318 -0.38534504 0.3119862 
-0.894947 0.33482653 0.2948917 
-0.4923533 0.86005193 0.1337869 
-0.21849221 0.9748086 0.044826385 
-0.08471761 0.9962922 0.014993583 
-0.019892896 0.99977547 0.00729825 
0.01697633 0.99981403 0.009150372 
0.030626478 0.9994596 0.011936307 
0.011295612 0.9998951 0.009068801 
-0.029186437 0.9995737 0.00083269505 
-0.057246394 0.9982774 -0.012853805 
-0.057778195 0.99812305 -0.02030155 
-0.049851272 0.9986859 -0.0118915485 
-0.0476964 0.9988611 0.0012972172 
-0.046873827 0.99890053 -0.0008606516 
-0.038957503 0.9988989 -0.026141888 
-0.025238942 0.9982257 -0.053930487 
-0.020187799 0.997647 -0.06552068 
-0.021505672 0.99744546 -0.0681193 
-0.014641753 0.99770844 -0.066057466 
0.0011204837 0.9987135 -0.050697308 
0.012999639 0.9996268 -0.024027571 
0.007813997 0.9999599 0.0043914304 
-0.010891028 0.9994743 0.030536808 
-0.028018814 0.998386 0.049399287 
-0.038352154 0.9980621 0.049003206 
-0.050439622 0.998462 0.023008676 
-0.06201712 0.9980667 -0.0041011423 
-0.057882406 0.9983219 -0.0017523831 
-0.03911854 0.99907666 0.017767413 
-0.02634916 0.99920404 0.029953178 
-0.026305795 0.99907225 0.03409834 
-0.6778839 -0.6069199 0.41487563 
-0.8619504 0.15303767 0.48334372 
-0.49706897 0.8307586 0.25052485 
-0.21729344 0.9718141 0.091438085 
-0.08165144 0.9963533 0.024763139 
-0.011056967 0.99993426 0.0030611958 
0.031278722 0.99950624 0.002997679 
0.04101883 0.9991247 0.008213359 
0.010181837 0.99990773 0.008991748 
-0.03683426 0.9993098 0.0048132325 
-0.06345649 0.9979659 -0.006124247 
-0.06229885 0.99792725 -0.016125446 
-0.051660404 0.99858177 -0.012875396 
-0.042428646 0.99909484 -0.0030494905 
-0.035408664 0.9993527 -0.006360298 
-0.027449267 0.99916 -0.030427178 
-0.019385777 0.99838316 -0.053434752 
-0.020216364 0.99827623 -0.055098377 
-0.026844507 0.99863267 -0.044858806 
-0.025678735 0.99905115 -0.03517908 
-0.0116059575 0.9997377 -0.019748988 
0.0022158702 0.99999297 0.003052214 
-0.0005203178 0.9996561 0.026217667 
-0.015726658 0.99875546 0.04733069 
-0.027304715 0.99770164 0.06201648 
-0.031067267 0.997819 0.058241706 
-0.038903534 0.998855 0.027843291 
-0.05011566 0.9987357 -0.0039145593 
-0.04607906 0.9989216 -0.0056995917 
-0.023897046 0.99965715 0.010708064 
-0.0050551076 0.9997263 0.02284634 
-0.0007331194 0.9995859 0.028765474 
-0.5971908 -0.3810716 0.7057958 
-0.6372434 0.35935968 0.6817488 
-0.357267 0.8673242 0.34656748 
-0.15790059 0.9787557 0.13078459 
-0.051729422 0.99805963 0.034658913 
0.011103906 0.9999308 0.0039055313 
0.049049538 0.99879503 0.0016824922 
0.050519813 0.9986986 0.0070043886 
0.01104154 0.99990064 0.008769697 
-0.03702835 0.99930346 0.004657358 
-0.061910514 0.9980616 -0.0063439165 
-0.062280938 0.9979045 -0.017547756 
-0.050908893 0.99858594 -0.015309986 
-0.03776216 0.99927676 -0.00447461 
-0.031206042 0.999497 -0.00565734 
-0.029078156 0.9992503 -0.025562676 
-0.026750697 0.9987289 -0.042720735 
-0.028511288 0.9988017 -0.0397778 
-0.0333982 0.99907964 -0.026916664 
-0.030805955 0.9993925 -0.016302207 
-0.014951113 0.9998882 -0.00036492982 
0.00036965215 0.9997505 0.02233752 
0.0008645056 0.99910384 0.042319734 
-0.008767679 0.9982657 0.058213465 
-0.015323525 0.99741906 0.07014694 
-0.017136665 0.9975944 0.06716986 
-0.026917731 0.9989034 0.038307574 
-0.041986622 0.9991011 0.005845485 
-0.041463953 0.9991398 -0.00075577275 
-0.019854935 0.99975663 0.009623861 
0.0017727178 0.99981743 0.019024273 
0.008525397 0.9996482 0.025116814 
-0.41069096 0.3478166 0.8428266 
-0.34660855 0.7011341 0.623116 
-0.20685144 0.92192274 0.3275226 
-0.09763293 0.98610055 0.13443844 
-0.021808332 0.9988162 0.043481685 
0.029117279 0.9994531 0.01567455 
0.056336313 0.9983522 0.010912765 
0.04753442 0.99881244 0.010685429 
0.0040286845 0.99996895 0.006785966 
-0.039674968 0.99921006 -0.002302674 
-0.06145327 0.9979972 -0.015008018 
-0.06341377 0.9976947 -0.024169086 
-0.05214466 0.99847484 -0.018141223 
-0.038900893 0.99923885 -0.0028931156 
-0.035786938 0.9993584 0.0014369698 
-0.03675392 0.99926096 -0.011256929 
-0.033544805 0.99912226 -0.025090987 
-0.03190741 0.99911743 -0.027319683 
-0.035126213 0.9991443 -0.021837898 
-0.033019897 0.99936116 -0.013676194 
-0.017484682 0.99983585 0.0047529135 
0.00061681384 0.9995465 0.030106345 
0.010021424 0.9987902 0.048141994 
0.010567079 0.99809647 0.06076169 
0.00941453 0.9971816 0.07443325 
0.006617966 0.99698436 0.077320226 
-0.008134178 0.9985192 0.0537895 
-0.029473487 0.99935347 0.020591542 
-0.03685045 0.99930054 0.0063659283 
-0.023459578 0.99969405 0.00784035 
-0.0082981475 0.9998974 0.011678246 
-0.005204755 0.99986124 0.015832124 
-0.24734554 0.8116409 0.52920634 
-0.20219369 0.8955826 0.39629486 
-0.13363142 0.96415585 0.2292297 
-0.069333225 0.9920797 0.10474226 
-0.013675953 0.9989411 0.043926947 
0.02447998 0.9993531 0.026346264 
0.040239014 0.999005 0.019230096 
0.025723595 0.9996095 0.010917759 
-0.011664724 0.999932 0.00021571519 
-0.042751126 0.999014 -0.011978625 
-0.058219522 0.998023 -0.023677139 
-0.061266325 0.99769604 -0.02913852 
-0.05111904 0.9984677 -0.021196188 
-0.0380411 0.9992644 -0.0048615774 
-0.03514093 0.99937195 0.0045760106 
-0.035253696 0.9993782 -0.00062606554 
-0.031325385 0.9994081 -0.014218344 
-0.030965699 0.99923384 -0.023938742 
-0.03719662 0.9990218 -0.02391504 
-0.03715309 0.9992001 -0.014792763 
-0.020939391 0.9997549 0.0071956627 
0.0030647875 0.99945235 0.032950725 
0.023600025 0.99861735 0.046972513 
0.033385526 0.9977831 0.057570573 
0.035548765 0.9965771 0.07463534 
0.031041898 0.9960948 0.08265277 
0.013652651 0.99800736 0.061602943 
-0.011119756 0.9996305 0.024804685 
-0.027061056 0.9996292 0.0030293781 
-0.027669346 0.999615 -0.002091945 
-0.027018314 0.9996318 -0.0025191093 
-0.032491185 0.9994716 -0.0009997578 
-0.17325385 0.95011264 0.25936309 
-0.14290576 0.96812725 0.20568842 
-0.09868661 0.9867694 0.12863554 
-0.05603505 0.996378 0.063961275 
-0.016395561 0.9993299 0.03272503 
0.009361572 0.99961865 0.025981946 
0.015562226 0.9996584 0.020998653 
-9.1232854e-05 0.99991846 0.0127719175 
-0.02663143 0.9996363 0.004249994 
-0.04363109 0.99903184 -0.0056495895 
-0.052523825 0.9984972 -0.015641626 
-0.055211823 0.99824554 -0.021388195 
-0.04412 0.99885315 -0.018597597 
-0.029387362 0.99954283 -0.0071128313 
-0.026511323 0.9996408 0.003929363 
-0.029232468 0.99956846 0.0029186092 
-0.02966791 0.99949056 -0.011768665 
-0.032875214 0.9991646 -0.024279362 
-0.03928648 0.99894446 -0.023805264 
-0.0366245 0.9992365 -0.013607822 
-0.017806401 0.9998242 0.0058706147 
0.008886344 0.9996503 0.024905749 
0.031719435 0.9989282 0.033712585 
0.041778903 0.99810123 0.045260157 
0.042650603 0.9969379 0.06554248 
0.036249522 0.9965549 0.074594125 
0.018584521 0.9984492 0.05247769 
-0.0059586074 0.9998866 0.01383928 
-0.025724 0.9996378 -0.0079140365 
-0.035966575 0.99930775 -0.009517784 
-0.046039395 0.9989225 -0.0058601378 
-0.057246134 0.9983547 -0.003296328 
-0.115693234 0.9872274 0.10953227 
-0.09175961 0.9918171 0.088764526 
-0.058870196 0.9966943 0.05598863 
-0.031044763 0.9991501 0.027116274 
-0.007661472 0.99983525 0.016461063 
0.0025597916 0.99981326 0.019156149 
-0.0022261098 0.9997948 0.020134738 
-0.01862045 0.9996348 0.019589575 
-0.035052422 0.9992 0.019255225 
-0.041483935 0.9990463 0.01362085 
-0.04714042 0.9988821 0.0035169064 
-0.048314046 0.9988153 -0.005806934 
-0.03339856 0.9994128 -0.0076593114 
-0.016807927 0.99985707 0.0018437249 
-0.015597602 0.9997923 0.0131166 
-0.022354605 0.99968946 0.011011307 
-0.027155653 0.9996096 -0.006571667 
-0.031987343 0.9992956 -0.019629389 
-0.035956353 0.9991527 -0.020027649 
-0.030750016 0.99938554 -0.016824767 
-0.013601306 0.99985516 -0.010239754 
0.007996852 0.9999634 -0.0030651835 
0.025026727 0.9996751 0.0048366706 
0.031032125 0.99921703 0.024543146 
0.028528824 0.99829775 0.05086875 
0.018114984 0.9980232 0.060180716 
-0.0006613457 0.9993194 0.036884677 
-0.02077745 0.999784 0.0004864692 
-0.034066103 0.9993341 -0.013077051 
-0.041191876 0.9991484 -0.0023705687 
-0.0508323 0.9986465 0.01101685 
-0.061159007 0.99798506 0.016897293 
-0.062086813 0.9972489 0.040495705 
-0.041577637 0.99868274 0.03007096 
-0.015597934 0.99975204 0.015896695 
0.0014251648 0.9999767 0.006686793 
0.009412806 0.9999179 0.008692605 
0.005084458 0.9998709 0.015242288 
-0.006779533 0.99979925 0.018856 
-0.02153827 0.9994752 0.024198504 
-0.03155773 0.99906224 0.029646192 
-0.036328644 0.9989784 0.026878577 
-0.044441547 0.9988773 0.016408993 
-0.0416718 0.9991096 0.0066009965 
-0.01967854 0.9997806 0.007188309 
-0.0011251793 0.9998423 0.017724581 
-0.0011987516 0.99969155 0.024809655 
-0.011695076 0.999788 0.016944597 
-0.022729214 0.9997408 -0.0013988281 
-0.032049827 0.9994332 -0.010304079 
-0.036372673 0.9992737 -0.011364445 
-0.030908128 0.9993424 -0.018960832 
-0.016759852 0.9994712 -0.027865946 
-0.00064039463 0.99957633 -0.029099202 
0.012222016 0.99982053 -0.014474231 
0.016989762 0.99971247 0.016922403 
0.011942485 0.99884546 0.046530746 
-0.0024288988 0.99865776 0.05173912 
-0.019313289 0.9995079 0.024717351 
-0.029082261 0.99953365 -0.009310388 
-0.029644972 0.999458 -0.014318868 
-0.027763333 0.9995999 0.0054175504 
-0.031378537 0.99925506 0.022465767 
-0.037047274 0.99893415 0.027533988 
-0.01783567 0.99981093 0.0077436953 
-0.0022131766 0.9999974 0.0006139168 
0.016310284 0.99985975 -0.0038256191 
0.025331555 0.99967897 -0.00056505017 
0.023931887 0.9996756 0.008727355 
0.014467632 0.999779 0.015252791 
0.0031594886 0.99982274 0.018561622 
-0.010316403 0.99963653 0.024910096 
-0.02143329 0.99927396 0.03150058 
-0.03283966 0.9989881 0.030731691 
-0.044601746 0.9987917 0.020636624 
-0.034219433 0.9993432 0.011923162 
-0.004536877 0.99988174 0.014696847 
0.014431592 0.99968064 0.020749465 
0.011361844 0.9997778 0.01775563 
-0.005560229 0.99997467 0.0044526714 
-0.024434954 0.9996753 -0.007235372 
-0.03631508 0.9993333 -0.0037814828 
-0.03732619 0.9993029 0.0007169352 
-0.028455513 0.99953306 -0.0111308135 
-0.014768712 0.999505 -0.027782677 
-0.0015991883 0.9995622 -0.029546442 
0.009990646 0.9999258 -0.006974262 
0.014830066 0.99951494 0.027385956 
0.00681863 0.99879247 0.04865341 
-0.009794089 0.9990979 0.041323002 
-0.02284631 0.9997205 0.0060788854 
-0.026351856 0.9992701 -0.02765841 
-0.023023384 0.99932796 -0.028522069 
-0.019814054 0.9997666 -0.008614494 
-0.021477694 0.99976003 0.0043216124 
-0.024089184 0.99969214 0.005942405 
0.021433508 0.99976623 -0.0028693893 
0.028667899 0.9995652 -0.006905686 
0.036850553 0.9993084 -0.0049887854 
0.04033031 0.9991724 0.0052902997 
0.036877938 0.9991561 0.018083591 
0.02909087 0.9992742 0.024593402 
0.017658357 0.99946314 0.027598282 
-0.0006646895 0.9995178 0.03104389 
-0.018518375 0.9992495 0.034023307 
-0.037642002 0.9988371 0.030125508 
-0.048931465 0.9986872 0.015151424 
-0.029359402 0.9995595 0.0043490217 
0.0045968783 0.999972 0.005912795 
0.020416731 0.99978346 0.004041227 
0.012071853 0.9998878 -0.008870284 
-0.009602655 0.9996698 -0.023838524 
-0.028542755 0.9992697 -0.02540396 
-0.032427866 0.99944293 -0.007902925 
-0.023138 0.9997066 0.0071714753 
-0.008711552 0.99996084 0.0016275571 
0.004474334 0.99992996 -0.0109564215 
0.0146172475 0.99986804 -0.0070939627 
0.023924375 0.99956924 0.016999837 
0.023460815 0.9989019 0.040554892 
0.0052669593 0.99898744 0.04468182 
-0.017486619 0.9995406 0.024752486 
-0.030911129 0.99941766 -0.014454638 
-0.037744515 0.99827296 -0.045017973 
-0.041299947 0.99824816 -0.042366523 
-0.04362637 0.9987805 -0.023114495 
-0.048558712 0.9987545 -0.011464568 
-0.05307278 0.9985529 -0.008678744 
0.03534054 0.9993522 0.0068059126 
0.037436716 0.9992728 0.0072459173 
0.04055619 0.99909186 0.013067386 
0.043595843 0.99874014 0.024849955 
0.041876573 0.9984483 0.036706194 
0.035406202 0.9985128 0.04145516 
0.020336222 0.9989502 0.0410487 
-0.0028098582 0.9993366 0.036314104 
-0.023262791 0.9993053 0.029116947 
-0.04236595 0.9990025 0.014113301 
-0.045297977 0.9989431 -0.007795074 
-0.017284568 0.9997305 -0.015496628 
0.013536743 0.999857 -0.010137392 
0.018853167 0.9996988 -0.015715314 
0.0017496493 0.99944985 -0.03312288 
-0.020702733 0.99871105 -0.046342432 
-0.030602619 0.9986774 -0.041316997 
-0.019953603 0.9996606 -0.016746653 
-0.00012869293 0.9999798 0.00636217 
0.01737725 0.99979764 0.010141919 
0.02944934 0.99955165 0.005415276 
0.038538985 0.99916387 0.013652301 
0.044820394 0.99845505 0.032844994 
0.03179024 0.9985626 0.043152794 
-0.0049561025 0.9992745 0.037762444 
-0.038305633 0.99909663 0.018399855 
-0.053999096 0.9984381 -0.014334249 
-0.06344742 0.9972492 -0.03832155 
-0.06840212 0.997134 -0.032325987 
-0.06768204 0.99763656 -0.01184963 
-0.06932979 0.9975914 0.0021954053 
-0.07386081 0.9972341 0.008290737 
0.007583323 0.9997698 0.020070767 
0.012771395 0.99960375 0.025083264 
0.021266628 0.99920696 0.03366384 
0.029585743 0.99854666 0.045048602 
0.031560298 0.99808836 0.05313758 
0.027264992 0.99826235 0.052238848 
0.012812738 0.9989759 0.043394886 
-0.006023697 0.9995907 0.027968155 
-0.019886332 0.9997527 0.00995457 
-0.029888568 0.9994483 -0.014486193 
-0.021496741 0.99920005 -0.033721484 
0.0060890177 0.99957585 -0.028481726 
0.022326 0.9996178 -0.016308669 
0.011428086 0.9996656 -0.023197507 
-0.014278721 0.999072 -0.04063645 
-0.034176286 0.9981369 -0.050544634 
-0.033404317 0.9984317 -0.04492559 
-0.012075037 0.9996436 -0.02381144 
0.011790164 0.9999289 -0.0018077302 
0.028708767 0.9995737 0.0053122225 
0.041076373 0.999145 0.0047180923 
0.05242919 0.99851924 0.014511029 
0.056268964 0.9979684 0.02988381 
0.029875314 0.9988763 0.036793157 
-0.022224352 0.99905956 0.037228942 
-0.06015988 0.99773926 0.02995441 
-0.07263876 0.9973404 0.0059760874 
-0.0783641 0.9967774 -0.017146928 
-0.07792406 0.9968199 -0.016672205 
-0.06803751 0.99767995 -0.0023811315 
-0.059879996 0.9981666 0.008827789 
-0.059728608 0.99811304 0.014246378 
-0.040767696 0.99895746 0.020542419 
-0.027276972 0.9992281 0.02827125 
-0.008085542 0.9992086 0.03894487 
0.006838288 0.99871117 0.05029118 
0.013127555 0.998458 0.053938914 
0.013288343 0.99885553 0.04594564 
0.006770524 0.99958134 0.028130773 
0.0011094132 0.99997944 0.006326145 
-0.0011060106 0.9998817 -0.015342683 
-0.0013015759 0.9992855 -0.037772458 
0.008676584 0.99905926 -0.042489085 
0.022640752 0.99944717 -0.024349745 
0.020872079 0.9997123 -0.011826434 
-0.0011716523 0.99979204 -0.020362472 
-0.028700622 0.9989965 -0.034384403 
-0.042211242 0.998284 -0.04058734 
-0.032412846 0.99873513 -0.038439434 
-0.0075621386 0.99963313 -0.026010312 
0.011632956 0.9998824 -0.009993314 
0.020940183 0.9997702 -0.004595746 
0.028879056 0.9995697 -0.005140909 
0.040890425 0.9991579 0.0033996124 
0.04699572 0.99877685 0.015369255 
0.02159433 0.99951226 0.022559445 
-0.027856957 0.99916726 0.029815217 
-0.062564336 0.99752855 0.03197855 
-0.074746564 0.9970631 0.016678665 
-0.08109271 0.9966985 -0.004010198 
-0.08095082 0.9966489 -0.011747966 
-0.06979784 0.99751544 -0.00955062 
-0.05744082 0.99831843 -0.007809177 
-0.05452008 0.9984714 -0.009080645 
-0.07412922 0.9971676 0.012714005 
-0.053602174 0.99840295 0.017843753 
-0.027262596 0.999282 0.026311494 
-0.010038676 0.99932104 0.035450857 
-0.0015404081 0.99937946 0.03519175 
0.0036069644 0.99974316 0.022375992 
0.009231003 0.99995685 0.0010720683 
0.018817233 0.9996503 -0.018577285 
0.026622096 0.99906224 -0.034147203 
0.027971784 0.99863034 -0.04421524 
0.025267445 0.99905926 -0.03524464 
0.020836648 0.99966913 -0.0150845125 
0.00948696 0.999932 -0.006794746 
-0.011983807 0.99983364 -0.013751483 
-0.031778134 0.99924946 -0.022155836 
-0.034412567 0.99909765 -0.024894834 
-0.016927999 0.9995422 -0.025079286 
0.0054776175 0.99981505 -0.018439367 
0.011972994 0.99990016 -0.007505681 
0.0042835427 0.99997485 -0.005652658 
-0.0016507322 0.9999578 -0.009038089 
0.0065117385 0.99996406 -0.0054359334 
0.020239366 0.999795 0.00071138644 
0.011202169 0.99992853 0.004179338 
-0.020269593 0.99975544 0.008840406 
-0.047091402 0.9988039 0.013165008 
-0.061639734 0.99804175 0.010641686 
-0.07048281 0.99750984 0.0025405216 
-0.07229775 0.9973543 -0.0075818417 
-0.06445232 0.9977532 -0.018287417 
-0.05437224 0.99801505 -0.031777445 
-0.05284741 0.997542 -0.04601385 
-0.08340183 0.99647415 0.009136752 
-0.060678508 0.99813837 0.0061574257 
-0.033481687 0.99941874 0.006415538 
-0.017205756 0.9998081 0.009368478 
-0.008187541 0.99995244 0.0052981665 
0.0007644493 0.9999626 -0.0086100465 
0.015895631 0.999547 -0.025557024 
0.035162706 0.99871755 -0.036427222 
0.04689662 0.9980134 -0.04207347 
0.04118313 0.99827266 -0.041900802 
0.022292241 0.9993011 -0.030007925 
0.007244901 0.9998824 -0.013520599 
-0.0027066553 0.999984 -0.0049776356 
-0.014830448 0.99987084 -0.00620723 
-0.021045404 0.99973446 -0.009386036 
-0.011826496 0.9998828 -0.009723752 
0.009710951 0.99990684 -0.009590553 
0.025417872 0.9996674 -0.004359231 
0.017373709 0.99984133 0.0039318455 
-0.008198404 0.99995863 0.0039396537 
-0.029128479 0.99957556 -0.00052810175 
-0.025733091 0.9996688 -0.00056273595 
-0.0052223788 0.9999863 0.00040956496 
0.002656961 0.999991 -0.0033092813 
-0.0076185884 0.99992824 -0.009243937 
-0.020962093 0.99972314 -0.010693108 
-0.03111056 0.9994996 -0.005716757 
-0.034213584 0.9994062 -0.0040712035 
-0.026698967 0.99944097 -0.020123444 
-0.010870063 0.99840707 -0.055364367 
0.002520303 0.9944547 -0.10513604 
0.0034095976 0.9885667 -0.15074593 
-0.082862206 0.99643135 0.016078277 
-0.060879577 0.99813676 0.0041066757 
-0.034287523 0.9993939 -0.0060269525 
-0.017043304 0.9997902 -0.01136398 
-0.006549397 0.99979335 -0.019245524 
0.0044670817 0.9995053 -0.031134086 
0.021572499 0.99893117 -0.040879674 
0.040321458 0.99817765 -0.044896677 
0.048240643 0.99777013 -0.04612868 
0.034731258 0.99843454 -0.043843497 
0.009302982 0.99939245 -0.03359102 
-0.005755132 0.99983895 -0.016998501 
-0.010598005 0.9999346 -0.0043032863 
-0.013422568 0.99990886 -0.0014378408 
-0.008917232 0.99995816 -0.002092968 
0.006279688 0.9999802 0.0005061444 
0.026564196 0.99963355 0.0052076415 
0.037101742 0.9992381 0.012119179 
0.023974085 0.9995629 0.01730065 
-0.007616133 0.99986184 0.014775118 
-0.03486251 0.9993272 0.011398907 
-0.034952313 0.9992939 0.013787536 
-0.014336174 0.99976957 0.015981656 
0.0015973574 0.999973 0.007183363 
0.0071415915 0.99990886 -0.011456744 
0.006893503 0.99964345 -0.025797352 
0.0057487455 0.99959767 -0.027775368 
0.017923154 0.9993045 -0.032701183 
0.051076293 0.99614555 -0.07131149 
0.096525304 0.98225063 -0.16083108 
0.1319404 0.9462121 -0.29542235 
0.139457 0.8993159 -0.41446686 
-0.08706182 0.99581283 0.027879247 
-0.06614229 0.9977417 0.011695334 
-0.037997767 0.9992708 -0.0037540938 
-0.015651327 0.99978286 -0.013762156 
-0.0006965033 0.9997093 -0.024100194 
0.011934052 0.99930215 -0.03539824 
0.02557109 0.9986834 -0.044472795 
0.03681539 0.99808574 -0.049695265 
0.03782141 0.9979301 -0.052011065 
0.021377152 0.99849534 -0.05049821 
-0.0029500762 0.9991635 -0.040788267 
-0.016632846 0.99958974 -0.02331748 
-0.019438257 0.9997678 -0.009305891 
-0.01638648 0.99985397 -0.004856113 
-0.006503035 0.99997836 -0.0010984382 
0.0077325758 0.99992496 0.009513348 
0.022624556 0.9995006 0.022064628 
0.031165097 0.99911886 0.028111544 
0.023804719 0.999417 0.024475595 
0.000436574 0.9998639 0.016493026 
-0.02212177 0.9996332 0.015626349 
-0.023279905 0.9993956 0.025818292 
-0.0076215123 0.9993522 0.03517307 
0.008611735 0.99959254 0.027213296 
0.022448394 0.99974376 0.0029181314 
0.03131742 0.9992493 -0.022810288 
0.041008126 0.9982822 -0.041843697 
0.073817566 0.99488586 -0.068942994 
0.14315301 0.9786993 -0.14715584 
0.24020423 0.91591007 -0.32157528 
0.32524878 0.73882306 -0.5902151 
0.34162834 0.49791548 -0.7971012 
-0.08409594 0.99598485 0.030694818 
-0.06570702 0.99769086 0.017196205 
-0.037642986 0.99927956 0.0048288605 
-0.0110397665 0.99993396 -0.0031846508 
0.008504108 0.9998743 -0.013384209 
0.022410601 0.99939436 -0.026624953 
0.031297605 0.9987038 -0.04014068 
0.033954147 0.99821424 -0.04914701 
0.029378435 0.99821365 -0.052025102 
0.0125847 0.9986145 -0.051096164 
-0.010991491 0.9989945 -0.043464653 
-0.02592574 0.9992351 -0.029278066 
-0.028372437 0.99944293 -0.017576078 
-0.022388672 0.9996836 -0.011465748 
-0.01263573 0.99991995 -0.00077631854 
-0.0035291251 0.9998142 0.01894861 
0.006964538 0.9993464 0.03547331 
0.018935964 0.99921787 0.034715813 
0.023674821 0.9995308 0.019437825 
0.013179588 0.9998963 0.005805809 
-0.0038678467 0.9999643 0.007523942 
-0.009277624 0.9996089 0.026384462 
-0.0026769752 0.9989827 0.045014843 
0.009388502 0.99898183 0.044128623 
0.027942326 0.9993058 0.024641769 
0.04683602 0.99888843 -0.00532393 
0.0685936 0.99676144 -0.041971046 
0.11821498 0.98853916 -0.09389096 
0.22083625 0.9533742 -0.2056917 
0.3791434 0.8139685 -0.44012007 
0.5213851 0.3967608 -0.7554723 
0.50959027 -0.09684433 -0.85494965 
-0.05275576 0.9983957 0.02056502 
-0.039534178 0.9991308 0.013217048 
-0.016958218 0.9998242 0.007995388 
0.007108798 0.99996233 0.0049915006 
0.025688509 0.9996629 -0.0037860165 
0.037205953 0.99912685 -0.019010682 
0.04078292 0.9985434 -0.035325076 
0.037264258 0.9983345 -0.04404052 
0.029302532 0.99863523 -0.043232713 
0.012129994 0.99908566 -0.04099786 
-0.010984158 0.9992919 -0.03598856 
-0.024904646 0.99934536 -0.02624197 
-0.02514252 0.9995247 -0.017841082 
-0.019718245 0.99974644 -0.010875297 
-0.015651587 0.99986666 0.004668605 
-0.0116351815 0.9995071 0.029158821 