# OOMMF OVF 2.0
# Segment count: 1
# Begin: Segment
# Begin: Header
# Title: m
# meshtype: rectangular
# meshunit: m
# xmin: 0
# ymin: 0
# zmin: 0
# xmax: 1.6e-07
# ymax: 1.6e-07
# zmax: 5e-09
# valuedim: 3
# valuelabels: m_x m_y m_z
# valueunits: 1 1 1
# Desc: Total simulation time:  4.2424267628400563e-11  s
# xbase: 2.5e-09
# ybase: 2.5e-09
# zbase: 2.5e-09
# xnodes: 32
# ynodes: 32
# znodes: 1
# xstepsize: 5e-09
# ystepsize: 5e-09
# zstepsize: 5e-09
# End: Header
# Begin: Data Text
-0.065287896 -0.692986 0.71798885 
-0.19232133 -0.20865177 0.95889366 
-0.14326683 0.6818316 0.7173425 
-0.070059 0.91487366 0.39761528 
-0.07263439 0.9664639 0.24631639 
-0.08400352 0.986054 0.1436698 
-0.05780411 0.9965338 0.05982572 
-0.017184166 0.99985236 3.603992e-05 
0.008349618 0.998995 -0.044036973 
0.017590428 0.9970215 -0.07509204 
0.013758937 0.99578595 -0.090670235 
-0.0023803767 0.99545574 -0.0951963 
-0.030675808 0.9944985 -0.10015866 
-0.06508838 0.9913196 -0.11423192 
-0.08398979 0.98788387 -0.13050416 
-0.060612284 0.98932356 -0.13253377 
-0.012414201 0.993612 -0.11216559 
0.010225743 0.99624884 -0.08592886 
-0.0125736445 0.9977664 -0.06560685 
-0.05667713 0.99735737 -0.04545439 
-0.07704852 0.99661106 -0.028807916 
-0.04772579 0.99852484 -0.025894385 
0.010787562 0.9996076 -0.025850244 
0.050154854 0.9986894 -0.010202279 
0.04830906 0.9986547 0.018841017 
0.021934742 0.9985068 0.050032046 
-0.024169251 0.99726903 0.06978797 
-0.08849701 0.99397063 0.06473631 
-0.14018512 0.9890653 0.045805488 
-0.16060625 0.9866119 0.02833078 
-0.1606101 0.9869756 0.009142754 
-0.15551369 0.987812 -0.0065661916 
-0.044486474 0.053956024 0.99755186 
-0.14578 0.5292798 0.8358296 
-0.11066727 0.88286877 0.456394 
-0.063660055 0.96958447 0.23633362 
-0.05779186 0.98852164 0.13958956 
-0.05779421 0.9955582 0.0743212 
-0.03404894 0.99919975 0.020989293 
-0.005123065 0.99990785 -0.012574579 
0.010181302 0.99935955 -0.034304645 
0.017240308 0.99860907 -0.04982796 
0.01857393 0.9981189 -0.058427177 
0.009857629 0.9979547 -0.063160665 
-0.0138068115 0.997245 -0.072882436 
-0.04752092 0.9945911 -0.09235933 
-0.06844611 0.99117166 -0.11355088 
-0.051821236 0.9913395 -0.12066747 
-0.014500207 0.99434274 -0.10522489 
0.0013798111 0.996619 -0.08215138 
-0.019989809 0.9979552 -0.060711138 
-0.06099651 0.9974257 -0.037701882 
-0.08492096 0.99616146 -0.02123625 
-0.06418274 0.9977446 -0.019658567 
-0.0128738135 0.99969196 -0.021220606 
0.023909127 0.99966544 -0.009867516 
0.024100872 0.99962676 0.012865836 
0.003398483 0.999272 0.038000442 
-0.02955883 0.99801373 0.05563094 
-0.0746818 0.9956558 0.05560887 
-0.11264927 0.99260354 0.0452581 
-0.12897246 0.99105793 0.034211908 
-0.12818366 0.9915739 0.018711133 
-0.120166935 0.9927414 0.0049349354 
-0.0125286095 0.8272663 0.56167036 
-0.040257864 0.9145138 0.40254667 
-0.035746623 0.9753083 0.21793564 
-0.025721073 0.9935956 0.110028274 
-0.02836605 0.99799764 0.05653579 
-0.028022252 0.9994993 0.01469845 
-0.008141032 0.9998169 -0.017315466 
0.014058577 0.99954695 -0.02661442 
0.023296341 0.99944025 -0.024012338 
0.026232312 0.9994143 -0.021976352 
0.026340611 0.9994157 -0.021784665 
0.018195607 0.9995489 -0.023895329 
-0.004748832 0.9993596 -0.035466935 
-0.036611084 0.9975482 -0.059642456 
-0.055615015 0.9945161 -0.088570915 
-0.04298461 0.9934505 -0.10586983 
-0.016164016 0.9948418 -0.100143656 
-0.007299809 0.99658304 -0.08227341 
-0.027058782 0.9978548 -0.059612647 
-0.06596311 0.99720716 -0.03502704 
-0.09586218 0.9951444 -0.022315256 
-0.08612039 0.9959746 -0.024857974 
-0.04450445 0.9986324 -0.02743756 
-0.012848208 0.99976385 -0.017529745 
-0.013016432 0.99991286 0.002228393 
-0.028711192 0.9992821 0.024717525 
-0.04600688 0.99799687 0.04342551 
-0.06794581 0.9963826 0.051041286 
-0.08992153 0.9946982 0.049896497 
-0.1024291 0.9937933 0.043395203 
-0.102397144 0.99431694 0.029132724 
-0.095027044 0.9953486 0.015849296 
0.06356842 0.98245656 0.17532313 
0.055112258 0.98996454 0.13012606 
0.042189583 0.9963155 0.07467 
0.028134152 0.9989093 0.03726628 
0.010134588 0.99986374 0.013035104 
0.000895516 0.9998656 -0.01637229 
0.014596876 0.9991764 -0.03786172 
0.03517475 0.99881077 -0.03376118 
0.043564186 0.99891907 -0.016215114 
0.040505104 0.9991775 -0.0019211903 
0.031340644 0.99948716 0.0065726046 
0.015091266 0.99983555 0.010062167 
-0.010259277 0.9999467 0.001144405 
-0.036634427 0.9990452 -0.023806397 
-0.048947543 0.9970933 -0.05838637 
-0.037357014 0.9956204 -0.085700236 
-0.01806227 0.9956947 -0.0909175 
-0.0131295575 0.9968181 -0.078621626 
-0.030035548 0.9980029 -0.055572126 
-0.06812617 0.9971002 -0.03391407 
-0.104593545 0.9940291 -0.031087229 
-0.10447704 0.99366874 -0.0413167 
-0.07147516 0.9965081 -0.043159906 
-0.044948038 0.99856544 -0.029101284 
-0.045855504 0.99892646 -0.0065800343 
-0.056456253 0.99825543 0.017290931 
-0.058853745 0.9975186 0.03864012 
-0.060441688 0.9967923 0.052460395 
-0.07045175 0.9959137 0.056501698 
-0.08341242 0.9952688 0.049823474 
-0.08824106 0.9955463 0.03318517 
-0.08446995 0.9962563 0.018394938 
0.19899046 0.97778785 -0.0658313 
0.17015573 0.9843563 -0.045714956 
0.12810723 0.99134517 -0.028692417 
0.091522455 0.99569076 -0.014955332 
0.05479004 0.99841076 -0.013196332 
0.031285334 0.99906284 -0.0299136 
0.034353092 0.9985733 -0.040880304 
0.048371345 0.9984201 -0.028591778 
0.052494578 0.99860734 -0.0052710483 
0.043011717 0.9989831 0.013524264 
0.026014041 0.9993206 0.02610965 
0.0036428971 0.99946475 0.03251277 
-0.021759508 0.99947697 0.023925986 
-0.04103514 0.9991541 -0.0026840186 
-0.04681463 0.9981115 -0.039772652 
-0.03610865 0.9968779 -0.070218176 
-0.021367086 0.99665505 -0.07888132 
-0.017683066 0.99763256 -0.066458486 
-0.03220605 0.9985876 -0.04225673 
-0.06907468 0.99724394 -0.027078303 
-0.106924556 0.99361634 -0.035968844 
-0.10949352 0.99264157 -0.051710196 
-0.08009439 0.9955251 -0.05014588 
-0.055299956 0.9979741 -0.031457704 
-0.053261075 0.99854803 -0.008071081 
-0.056246046 0.9983204 0.013888201 
-0.046655986 0.99832976 0.034072466 
-0.036747098 0.9980984 0.049491953 
-0.04479035 0.9975372 0.053975794 
-0.06542644 0.99687 0.04438126 
-0.07955746 0.99651164 0.025202187 
-0.08144099 0.9966315 0.009648827 
0.39685783 0.82526416 -0.40179992 
0.30437666 0.9060869 -0.29387337 
0.19957729 0.9635137 -0.17835447 
0.13299832 0.98625916 -0.09800238 
0.08395877 0.9948011 -0.057635266 
0.05217143 0.9975956 -0.04561966 
0.04272609 0.99848664 -0.0346265 
0.04305819 0.9989625 -0.014831247 
0.037563864 0.99928397 0.004527787 
0.023525432 0.99958855 0.016411584 
0.006271495 0.99968576 0.024271274 
-0.013538415 0.99950635 0.028354103 
-0.03383123 0.9992476 0.018965922 
-0.046437465 0.99890614 -0.0054927426 
-0.04782668 0.9982165 -0.03572951 
-0.038007807 0.9976254 -0.057437133 
-0.026137678 0.9978792 -0.059614625 
-0.022261953 0.99885225 -0.0424092 
-0.031844232 0.9993215 -0.018506588 
-0.06021531 0.99811167 -0.012136922 
-0.089038715 0.99554455 -0.031036256 
-0.08658625 0.9950234 -0.049308527 
-0.05686151 0.99731874 -0.046066616 
-0.03162081 0.9990944 -0.028469035 
-0.025841447 0.9996167 -0.0099426955 
-0.02455962 0.9996823 0.00567048 
-0.0127447685 0.99969894 0.020969322 
-0.004256421 0.99941325 0.033988275 
-0.020031227 0.9991481 0.036084514 
-0.052890405 0.99831396 0.02391349 
-0.078013144 0.9969404 0.004880075 
-0.08607413 0.9962469 -0.0091373855 
0.5390636 0.11993776 -0.8336819 
0.4248503 0.6087538 -0.67001575 
0.2424107 0.8893918 -0.38758162 
0.14173816 0.9683736 -0.20533612 
0.086224444 0.9901954 -0.10990196 
0.050337374 0.996905 -0.06038694 
0.030251779 0.9991226 -0.028964944 
0.018861081 0.9997852 -0.008600211 
0.007326041 0.9999732 -0.00020891754 
-0.004267525 0.9999909 0.00028601938 
-0.013653808 0.9999056 0.0015565652 
-0.025112476 0.9996747 0.0044782236 
-0.040466633 0.9991808 -0.00060928875 
-0.052102484 0.9985252 -0.015261676 
-0.053053778 0.99811745 -0.03077371 
-0.0434893 0.99830383 -0.038707793 
-0.03242623 0.9989156 -0.03340747 
-0.026387379 0.9995509 -0.014204883 
-0.027264368 0.99961805 0.004526029 
-0.039681464 0.99921244 8.690049e-05 
-0.051580343 0.9983305 -0.025996473 
-0.04149001 0.9981502 -0.044439394 
-0.01323108 0.99903363 -0.04191309 
0.009315107 0.9995336 -0.02908159 
0.014126308 0.99978113 -0.015434971 
0.0121939685 0.9999207 -0.0031552522 
0.016273309 0.9998165 0.010105498 
0.015288762 0.9996399 0.022050615 
-0.009449461 0.99969286 0.022910524 
-0.049732134 0.9987113 0.010128544 
-0.07958493 0.99680424 -0.006902305 
-0.08971969 0.9957963 -0.018443536 
0.34187716 -0.4809615 -0.8073389 
0.35679644 0.27472523 -0.89287317 
0.19605473 0.824472 -0.5308565 
0.10293805 0.95625067 -0.2738402 
0.058406115 0.9878407 -0.14408192 
0.02805614 0.99674755 -0.07554721 
0.006743174 0.99925643 -0.037963916 
-0.008007053 0.9997813 -0.019323088 
-0.018577198 0.9997254 -0.014284543 
-0.021608574 0.9996385 -0.015998237 
-0.018478498 0.99969256 -0.016532553 
-0.01970776 0.99971646 -0.01336325 
-0.03345065 0.9993554 -0.013037636 
-0.049619168 0.99861974 -0.017221037 
-0.052529957 0.99842566 -0.019668974 
-0.04386945 0.99886745 -0.018422099 
-0.036161594 0.9992822 -0.011295106 
-0.0324101 0.9994647 0.004460631 
-0.028009562 0.9994898 0.015350962 
-0.025568461 0.9996691 0.0028543363 
-0.022482775 0.99944615 -0.024535827 
-0.00902002 0.99913675 -0.04055239 
0.014484961 0.99910504 -0.03974293 
0.034063734 0.9989533 -0.030529706 
0.038809158 0.99912167 -0.015803594 
0.03463509 0.9993993 0.0012392976 
0.03264818 0.9992851 0.019063435 
0.02649759 0.9990899 0.033425078 
0.00049665495 0.99941856 0.034092214 
-0.038321238 0.9990498 0.020760376 
-0.066168346 0.9977937 0.0054321685 
-0.07518769 0.99716264 -0.0036906586 
0.08245538 -0.39240268 -0.9160903 
0.10482773 0.3871151 -0.91605294 
0.054102007 0.86230326 -0.5034941 
0.026913563 0.9661552 -0.25655416 
0.012559984 0.9898616 -0.14147913 
-0.002838603 0.9964473 -0.08417089 
-0.016039494 0.9984013 -0.05419948 
-0.025177537 0.99906987 -0.035007074 
-0.027871378 0.9993693 -0.022004692 
-0.020925129 0.9996552 -0.015869299 
-0.008642879 0.999852 -0.014881229 
-0.003788931 0.9999105 -0.012836348 
-0.01767313 0.99979925 -0.009442715 
-0.036580995 0.9993164 -0.005361169 
-0.040556934 0.9991772 0.00038772717 
-0.036321398 0.99933714 0.0024692852 
-0.03825854 0.9992648 0.0024844643 
-0.043400392 0.9990202 0.008664878 
-0.039796773 0.99912024 0.0132322395 
-0.02867306 0.99958795 0.0013389305 
-0.017435491 0.9996542 -0.019689636 
-0.0043549365 0.99947214 -0.032197177 
0.016334765 0.99926424 -0.034701508 
0.038436282 0.9988521 -0.02858913 
0.049454298 0.99871147 -0.0113835065 
0.049741138 0.99870366 0.010810803 
0.048559118 0.9982877 0.032617155 
0.043357402 0.9978709 0.04872148 
0.021160292 0.9985877 0.048733767 
-0.013021001 0.9993203 0.034488294 
-0.038414482 0.9990511 0.020525519 
-0.047269154 0.99878705 0.013789417 
-0.20509869 0.4113271 -0.888113 
-0.1133552 0.76437765 -0.6347262 
-0.05444454 0.93914634 -0.3391755 
-0.026927937 0.9825669 -0.18394917 
-0.018419193 0.99343026 -0.112947665 
-0.022536442 0.9965548 -0.079817526 
-0.028142802 0.9977617 -0.06065928 
-0.028984472 0.9988195 -0.038983822 
-0.021667467 0.99965215 -0.015037643 
-0.008473851 0.9999642 -9.2945804e-05 
0.0048871445 0.99998724 0.0012780427 
0.009386198 0.9999558 0.00070264254 
-0.004665271 0.9999692 0.0063158926 
-0.023252722 0.99959445 0.016440919 
-0.029498845 0.99929106 0.023394931 
-0.033961806 0.99926645 0.01769682 
-0.04653886 0.99890023 0.0057086945 
-0.056408156 0.99840236 0.0032886348 
-0.049761526 0.99872315 0.0087123 
-0.031880148 0.9994741 0.0059383013 
-0.017649394 0.9998193 -0.0070636095 
-0.0073243435 0.9997716 -0.02008263 
0.010820493 0.9995248 -0.028866522 
0.03469876 0.9990066 -0.02795944 
0.05014648 0.9986474 -0.013738875 
0.054295197 0.99850625 0.0061186072 
0.054887623 0.99814445 0.026362073 
0.05106761 0.99779046 0.042501807 
0.03183713 0.99853426 0.043769196 
0.00022492484 0.9994775 0.03232003 
-0.025586454 0.9994065 0.023068773 
-0.03648739 0.9991237 0.020505093 
-0.16754739 0.87438786 -0.45538312 
-0.11117733 0.9410507 -0.3194734 
-0.060302168 0.9810963 -0.183885 
-0.031932857 0.9935482 -0.10882215 
-0.023219079 0.9969546 -0.074447446 
-0.027903667 0.9977973 -0.06018358 
-0.032914847 0.99829066 -0.048296344 
-0.027945492 0.999289 -0.025314478 
-0.0122528495 0.99991745 0.0038848575 
0.0034735478 0.99977344 0.021002555 
0.013177835 0.9997266 0.019317996 
0.013462354 0.9997966 0.015018364 
-0.0019266434 0.99979603 0.02010422 
-0.020830499 0.99933285 0.03000072 
-0.031541124 0.99897575 0.032443397 
-0.043225 0.998873 0.019604417 
-0.05677823 0.998385 0.0019260864 
-0.058738492 0.99827254 -0.0013490408 
-0.042260323 0.99904794 0.010827947 
-0.018215232 0.99967223 0.017993035 
-0.0036002714 0.99995476 0.0088090515 
0.0017215648 0.99996704 -0.007946019 
0.012436679 0.9996662 -0.022643507 
0.02896803 0.9992134 -0.027085492 
0.03883032 0.9990685 -0.018824458 
0.039455548 0.99921024 -0.0047250567 
0.038007982 0.9992045 0.012076762 
0.035399806 0.99897826 0.028097799 
0.022303967 0.9992284 0.03232954 
-0.0017949507 0.9996582 0.02608198 
-0.02351133 0.9994663 0.022680892 
-0.033920802 0.999139 0.023891557 
-0.06194589 0.9748928 -0.213885 
-0.04177 0.986883 -0.15593956 
-0.02069217 0.9952168 -0.09547531 
-0.009473986 0.998159 -0.059907485 
-0.0117946565 0.9990219 -0.042617254 
-0.024125854 0.99908304 -0.03537207 
-0.032366265 0.9991318 -0.026231442 
-0.024683965 0.99968344 -0.004887956 
-0.0054918993 0.99975675 0.02136057 
0.009275335 0.9994168 0.032865044 
0.015166972 0.99954355 0.026131481 
0.012018288 0.99975246 0.018725637 
-0.004152385 0.9997705 0.021016259 
-0.024111269 0.99934566 0.02696556 
-0.039980505 0.99888146 0.025246818 
-0.053431436 0.9985097 0.011109899 
-0.057904866 0.99831074 -0.004775027 
-0.046336994 0.9989191 -0.003680605 
-0.021116298 0.9996483 0.016044162 
0.0058261445 0.99953055 0.030080788 
0.019239062 0.9995562 0.022745188 
0.019431163 0.9997996 0.004818764 
0.02089198 0.9997251 -0.010646181 
0.025115047 0.9995536 -0.016184676 
0.023548137 0.9996586 -0.011320348 
0.016550984 0.9998608 -0.002145324 
0.012594561 0.9998767 0.009382645 
0.014430251 0.99966717 0.021388203 
0.012411273 0.999606 0.025176477 
0.0010178447 0.9997857 0.020680368 
-0.012111459 0.99976796 0.017818382 
-0.019294966 0.9996529 0.017935805 
0.021085607 0.9950391 -0.097224526 
0.023961034 0.9972552 -0.070056744 
0.02513274 0.9987797 -0.04251466 
0.020187356 0.99947083 -0.025508413 
0.0044111866 0.9998788 -0.014933434 
-0.015715066 0.99983186 -0.009457849 
-0.02467353 0.99969316 -0.0022004333 
-0.015692838 0.99978054 0.013880626 
0.0011651978 0.9995657 0.02944414 
0.012169062 0.99948543 0.029679049 
0.015058034 0.9996998 0.019331781 
0.009317723 0.9998677 0.013337248 
-0.008106919 0.9998464 0.015544033 
-0.03045849 0.9993733 0.018034441 
-0.048859518 0.9987288 0.012396966 
-0.055835318 0.9984383 -0.0018401048 
-0.04675063 0.99881244 -0.013716269 
-0.026802301 0.9996187 -0.00664117 
-0.0016243516 0.9998243 0.018678896 
0.022733785 0.9991069 0.035617992 
0.034735616 0.9989548 0.029713303 
0.03356616 0.99933654 0.014133118 
0.030332807 0.9995392 0.0011491203 
0.025585525 0.9996631 -0.004380032 
0.014679685 0.9998896 -0.0023476307 
0.0013808649 0.99999356 0.003327532 
-0.0040414818 0.99993443 0.010716206 
0.001052757 0.99983066 0.018372478 
0.0043981858 0.99980164 0.019426612 
-0.0019600953 0.9999315 0.011547383 
-0.011554338 0.9999299 0.002602407 
-0.016746195 0.9998558 -0.002844823 
0.058646686 0.9982152 -0.011268897 
0.055389985 0.9984645 -0.00081067183 
0.04745888 0.99885523 0.0059935693 
0.032518107 0.99943566 0.008426026 
0.010076796 0.9998939 0.010518791 
-0.008190975 0.99989945 0.011582722 
-0.010142169 0.9998284 0.015507478 
0.00045676276 0.99970603 0.02424327 
0.011175368 0.999581 0.026703237 
0.015634635 0.9997324 0.017052127 
0.013739955 0.99987376 0.007991789 
0.004020375 0.9999503 0.009131013 
-0.016237363 0.9997583 0.014826871 
-0.040326886 0.99909383 0.01361362 
-0.054955237 0.99848324 0.0033373113 
-0.049521144 0.99872446 -0.00985634 
-0.029431315 0.999427 -0.016717391 
-0.009599114 0.9999352 -0.0061312527 
0.008068594 0.99980766 0.017875152 
0.025905805 0.99917996 0.031119144 
0.035580292 0.9990701 0.024353165 
0.03507543 0.9993279 0.010653154 
0.03181953 0.9994922 -0.0016959476 
0.024682226 0.999652 -0.009310986 
0.010719264 0.99989945 -0.00929093 
-0.0049685524 0.9999851 -0.0022999577 
-0.011241474 0.99990636 0.007810734 
-0.00733086 0.9998203 0.017482454 
-0.008569379 0.9997831 0.01898347 
-0.022166064 0.99972045 0.008225156 
-0.037957072 0.99926335 -0.0056569795 
-0.04562672 0.99885297 -0.014524584 
0.051228385 0.9972449 0.053651676 
0.046556212 0.9974386 0.05430405 
0.03691673 0.9982365 0.046488952 
0.021716975 0.9991656 0.034590203 
0.0052232784 0.9996518 0.0258684 
-0.0010919357 0.9997731 0.02127806 
0.006894655 0.99974704 0.021407517 
0.017644754 0.99957705 0.023118855 
0.021129828 0.9996292 0.017174901 
0.018254785 0.99981755 0.005626229 
0.010727425 0.99993736 0.0031961855 
-0.0034362923 0.99991554 0.01254042 
-0.025871022 0.9994805 0.01922198 
-0.048075937 0.998769 0.0122204805 
-0.054915912 0.998491 -0.00043143774 
-0.039694868 0.99916166 -0.010014273 
-0.017196324 0.99975854 -0.013686376 
-0.004191943 0.99998146 -0.0044081886 
0.00459179 0.9998971 0.01359012 
0.016720658 0.99962884 0.021509293 
0.02415429 0.9996145 0.013696569 
0.02426151 0.99970555 -0.0005716818 
0.022328574 0.9996314 -0.015447379 
0.016318351 0.99954367 -0.02542236 
0.003776615 0.9997055 -0.02397443 
-0.010051594 0.99989504 -0.010438287 
-0.013647818 0.9998723 0.00831377 
-0.0091471905 0.9996314 0.025561022 
-0.015463762 0.99939066 0.03129254 
-0.03914563 0.9989931 0.02192302 
-0.06571184 0.99779534 0.009292868 
-0.0799552 0.99679625 0.002093917 
0.017498963 0.9964914 0.08184569 
0.014339288 0.99678767 0.07879596 
0.007943099 0.9979616 0.06332088 
-0.00066885474 0.99914795 0.04126596 
-0.0041285898 0.9996888 0.024601044 
0.004066978 0.99985963 0.016252087 
0.019735906 0.999719 0.013132747 
0.030190531 0.99948764 0.010639029 
0.029907765 0.9995421 0.004580536 
0.022377918 0.99974966 -6.7850444e-05 
0.009867321 0.99992913 0.006674236 
-0.007376473 0.9997627 0.020499522 
-0.028080158 0.9993387 0.023102984 
-0.044497143 0.99895453 0.010484872 
-0.04604522 0.9989386 -0.0012333113 
-0.031285197 0.9994838 -0.0073170923 
-0.016315399 0.999812 -0.010475941 
-0.011919024 0.9999206 -0.004102874 
-0.0074764555 0.99993336 0.008799762 
0.0026366978 0.99990064 0.013852018 
0.0077345297 0.9999572 0.0050800117 
0.0061747697 0.99990755 -0.012115985 
0.0040172124 0.9995831 -0.028592179 
9.506176e-05 0.99935794 -0.035829626 
-0.0083294595 0.999552 -0.028750453 
-0.017428072 0.9998121 -0.008479563 
-0.01548825 0.99973154 0.01723451 
-0.005886209 0.9991532 0.040721405 
-0.010307453 0.9986359 0.05118865 
-0.037590746 0.9981985 0.0467639 
-0.07295392 0.99655455 0.0394551 
-0.09562706 0.99476963 0.035902176 
-0.024885947 0.9974546 0.06682111 
-0.02421468 0.99771667 0.063048914 
-0.024212716 0.9986221 0.046557475 
-0.023817012 0.9994482 0.023156298 
-0.014379547 0.99987745 0.006196419 
0.005505758 0.99998283 -0.0020160081 
0.0270998 0.9996107 -0.006629383 
0.040308155 0.9991457 -0.009129749 
0.040997073 0.9991223 -0.008597584 
0.029726613 0.9995563 -0.0018600641 
0.010659906 0.99985933 0.012953982 
-0.008687997 0.9996137 0.026401734 
-0.023564488 0.99946547 0.022662714 
-0.03177703 0.99946916 0.0071905917 
-0.031452388 0.99950296 -0.0021639287 
-0.023671504 0.99969935 -0.006394757 
-0.01884989 0.99977595 -0.00963957 
-0.02009476 0.99978334 -0.005424826 
-0.016755782 0.99985063 0.004245128 
-0.009062681 0.9999268 0.008020893 
-0.008757804 0.99996024 -0.0017338978 
-0.013795163 0.9997091 -0.019784098 
-0.015607349 0.99938947 -0.031258482 
-0.014817229 0.9994537 -0.029544668 
-0.016955856 0.9997182 -0.016620155 
-0.02123046 0.99976355 0.0047147297 
-0.015245363 0.9994644 0.028958423 
-0.0005555938 0.9987046 0.05088095 
0.0008183478 0.9980169 0.06294277 
-0.023741242 0.9976742 0.06389409 
-0.06310184 0.99615073 0.060843226 
-0.09252254 0.9939848 0.058599856 
-0.05225753 0.9983726 0.022836221 
-0.047599126 0.9986632 0.020154394 
-0.041726597 0.99909854 0.007816898 
-0.035010267 0.99934185 -0.009505259 
-0.019232545 0.99959934 -0.020767748 
0.004750934 0.99966174 -0.025572125 
0.029042725 0.99917907 -0.028245954 
0.045976657 0.9985848 -0.026728999 
0.048509624 0.99864817 -0.018671164 
0.03239416 0.9994649 -0.004525856 
0.0063512274 0.9999152 0.011377915 
-0.012911401 0.9997299 0.019324647 
-0.018994574 0.99975514 0.0113509465 
-0.01780292 0.9998411 -0.0010347157 
-0.015599233 0.99986625 -0.0049299137 
-0.0131192105 0.9998946 -0.0062228628 
-0.014637943 0.99985415 -0.008803002 
-0.018912198 0.9997991 -0.006650215 
-0.016808659 0.99985856 0.00062188593 
-0.012888206 0.9999089 0.0040202616 
-0.018205872 0.99982035 -0.005274211 
-0.02615621 0.99946225 -0.019776428 
-0.025736196 0.99942356 -0.02214362 
-0.01857165 0.9997573 -0.011855529 
-0.014685258 0.99988884 0.0026185373 
-0.01611542 0.9996964 0.01864326 
-0.009644556 0.99937487 0.03401389 
0.0063832044 0.99882185 0.048105717 
0.012277087 0.99820983 0.058534812 
-0.0070971847 0.9980648 0.0617756 
-0.04535632 0.9972967 0.057810623 
-0.07684823 0.9956457 0.052763827 
-0.044401214 0.9989928 -0.006485162 
-0.037601955 0.99925053 -0.00920314 
-0.030551625 0.9993665 -0.018256389 
-0.025515385 0.9992319 -0.029742386 
-0.014902949 0.9992388 -0.036053 
0.0026430548 0.99927974 -0.037855048 
0.023408514 0.9990378 -0.037088506 
0.04030913 0.99867064 -0.03212891 
0.042513534 0.9988458 -0.022352865 
0.023311535 0.9996772 -0.010113664 
-0.004395268 0.9999902 -0.00052675133 
-0.019407712 0.99981034 0.0016265268 
-0.01715473 0.999843 -0.0044471654 
-0.010171157 0.9999056 -0.009247075 
-0.0072727227 0.9999463 -0.0073894872 
-0.005935627 0.99996275 -0.006282003 
-0.0074617835 0.999933 -0.008858833 
-0.010585773 0.9999086 -0.008411472 
-0.008293291 0.99996394 -0.0018434011 
-0.008422579 0.99996215 0.0021786669 
-0.019834656 0.99978757 -0.0056188814 
-0.030234875 0.9994254 -0.015323518 
-0.026938988 0.99958473 -0.010232386 
-0.014142112 0.99988663 0.0051767738 
-0.0056340043 0.9997897 0.019720484 
-0.0055223666 0.9995346 0.030001493 
-0.0019864745 0.9993537 0.03589248 
0.009520883 0.99904907 0.042549454 
0.016258782 0.9985546 0.051230527 
0.004467791 0.9985433 0.053771768 
-0.024797 0.99867135 0.045173552 
-0.050157893 0.9981171 0.035308927 
-0.0053091133 0.9999622 0.006884486 
2.6079251e-05 0.9999996 0.000971721 
0.0026872754 0.9999391 -0.010712459 
-0.00052331184 0.99974185 -0.022713 
-0.0030515157 0.9995645 -0.02935419 
0.00056156656 0.99950665 -0.031405404 
0.010833749 0.999496 -0.029843042 
0.021736966 0.9994277 -0.025920616 
0.021742305 0.9995686 -0.019750556 
0.003796165 0.9999089 -0.012954512 
-0.01976244 0.9997673 -0.008648887 
-0.030079316 0.9995164 -0.007887788 
-0.025058849 0.9996304 -0.010552477 
-0.018100629 0.99977076 -0.01143695 
-0.014521831 0.99986434 -0.0077745994 
-0.008805372 0.9999397 -0.006563231 
-0.00390029 0.99994487 -0.009752734 
-0.0012855335 0.9999552 -0.00938654 
0.0031110365 0.99999225 -0.0024109157 
-0.00059125636 0.9999992 0.0010808145 
-0.01626915 0.99984336 -0.0069803684 
-0.025966149 0.9995654 -0.013957589 
-0.018355858 0.99982053 -0.0046883067 
-0.0023853295 0.99990547 0.013545053 
0.0070416834 0.9995674 0.02855633 
0.0064547025 0.999344 0.035637 
0.0051940973 0.9993 0.037048336 
0.010090679 0.9990251 0.042977057 
0.017505262 0.99836856 0.05434845 
0.016909894 0.99820375 0.057474434 
0.0039566513 0.9989311 0.046055473 
-0.008263699 0.9994153 0.03318013 
0.039412044 0.9981772 0.045706738 
0.041526023 0.9985011 0.035653517 
0.03831544 0.9991126 0.01749738 
0.02641681 0.99965096 -0.0004881693 
0.010644523 0.9998746 -0.011728133 
-0.0005244955 0.99986243 -0.016584145 
-0.0030692592 0.9998447 -0.017362054 
-0.00026105842 0.9998513 -0.017243607 
-0.0022992953 0.99989194 -0.0145250335 
-0.016907545 0.9998137 -0.009321766 
-0.035896607 0.9993451 -0.004571274 
-0.044908024 0.9989859 -0.0032449 
-0.041255068 0.9991262 -0.006711252 
-0.03544589 0.9993368 -0.008344353 
-0.028947022 0.99957067 -0.0045478847 
-0.015742186 0.99987006 -0.00346553 
-0.0025647606 0.99997216 -0.0070213466 
0.006222576 0.99995357 -0.00736002 
0.01189012 0.9999263 -0.002441812 
0.0057599293 0.9999796 -0.0027406912 
-0.0090848785 0.9998711 -0.013243215 
-0.0124972295 0.9997658 -0.017667348 
0.0008133498 0.9999917 -0.0040144273 
0.016474782 0.9997396 0.015794821 
0.022687964 0.99930394 0.029613158 
0.020023808 0.99918985 0.034911133 
0.016103623 0.99920017 0.03660367 
0.019544836 0.998726 0.04652252 
0.03319421 0.99749637 0.06244414 
0.048030283 0.99660486 0.06687243 
0.05586586 0.9969295 0.054867987 
0.06019416 0.9973642 0.040512096 
0.058128726 0.9957199 0.07185421 
0.058932617 0.99648726 0.059499517 
0.053223893 0.9979226 0.03630231 
0.036861055 0.9992363 0.01296656 
0.013973308 0.9999016 -0.0013028926 
-0.005024101 0.9999588 -0.0075697997 
-0.014612745 0.9998253 -0.011654934 
-0.016554905 0.99973357 -0.016088381 
-0.019032912 0.99970514 -0.015080705 
-0.029106092 0.9995446 -0.007975416 
-0.042687997 0.99908835 -0.0004085554 
-0.049031563 0.9987971 0.00056954165 
-0.044569276 0.99899465 -0.004823171 
-0.038658183 0.9992346 -0.0059744944 
-0.030788464 0.99952596 -0.00029194707 
-0.015080958 0.99988294 0.0026171752 
0.00013377814 1 -0.00012323476 
0.010046539 0.99994713 -0.0022372084 
0.013467078 0.9999076 -0.0018624772 
0.00534331 0.9999578 -0.007476727 
-0.0047469125 0.9998139 -0.018701028 
0.00051525916 0.9998636 -0.016506325 
0.019067612 0.9998104 0.003961688 
0.034800433 0.99910766 0.023935484 
0.04018602 0.99862564 0.033643484 
0.038366996 0.9986273 0.035659917 
0.03606658 0.9987279 0.03524009 
0.04370974 0.9981101 0.043193527 
0.06816701 0.9960056 0.057672463 
0.10201301 0.9927924 0.0629003 
0.13587508 0.989216 0.05467857 
0.16121298 0.98599607 0.042687643 
0.04662315 0.99652964 0.06895677 
0.04757666 0.9971704 0.058205307 
0.04218767 0.9984746 0.035621386 
0.026099253 0.99958307 0.012352226 
0.0040133945 0.9999917 -0.0006594492 
-0.014030104 0.9998824 -0.0062098964 
-0.024131408 0.99962264 -0.013125875 
-0.027562905 0.9993944 -0.021241333 
-0.028501196 0.99937326 -0.020998145 
-0.03135606 0.9994374 -0.01191417 
-0.035755094 0.99935824 -0.0022029085 
-0.0345578 0.99940175 -0.0013933418 
-0.025659202 0.9996449 -0.0072049513 
-0.018891789 0.99979323 -0.007520018 
-0.012894653 0.99991685 -0.00029048475 
-0.0026582251 0.9999789 0.005939539 
0.005447396 0.99996954 0.005588774 
0.009417549 0.9999541 0.0017543186 
0.006755667 0.9999742 -0.0024593675 
-0.0028515302 0.9999395 -0.010625619 
-0.006378412 0.9998458 -0.016366906 
0.0071179974 0.99996895 -0.003388068 
0.03089072 0.9992821 0.021934468 
0.049282104 0.99810094 0.03695894 
0.055453226 0.997719 0.038494658 
0.05375402 0.99793994 0.035020545 
0.053638894 0.9981253 0.029476779 
0.06862543 0.99717426 0.030561492 
0.10876036 0.99317944 0.042022258 
0.1710346 0.98366874 0.05606293 
0.24807948 0.9663416 0.06812238 
0.31175926 0.947261 0.074182056 
0.020438759 0.99827003 0.055129364 
0.022069747 0.9985826 0.048432592 
0.017706396 0.9994058 0.029574921 
0.003686069 0.99996036 0.00810308 
-0.013626578 0.99989915 -0.003997139 
-0.026411194 0.99960315 -0.0098010665 
-0.033989992 0.999243 -0.01892057 
-0.037336458 0.99888456 -0.0289085 
-0.03617821 0.9989247 -0.02899492 
-0.031411756 0.9993317 -0.018695863 
-0.025015563 0.9996615 -0.007159561 
-0.012691881 0.99990463 -0.0054394896 
0.0044005876 0.9999253 -0.011401867 
0.015128364 0.9998021 -0.012914665 
0.018502535 0.999817 -0.004859997 
0.017049344 0.9998333 0.0065489206 
0.011584429 0.99987096 0.011135595 
0.0060715456 0.9999511 0.007808058 
-0.00220096 0.99999714 0.000980379 
-0.0104275495 0.9999265 -0.0061905114 
-0.0073519275 0.99996644 -0.0036162753 
0.0110799065 0.99979633 0.01687112 
0.037345327 0.9985011 0.04001007 
0.057134096 0.9973476 0.045093928 
0.061712198 0.99744517 0.035982255 
0.057213645 0.9980045 0.026714962 
0.060053926 0.9979989 0.019795164 
0.088330984 0.99587107 0.020938909 
0.15602955 0.9869802 0.03904994 
0.27097252 0.95931673 0.07928021 
0.4345363 0.889386 0.14202407 
0.57909685 0.7910384 0.19724376 
-0.004048038 0.99890673 0.046573013 
-0.0022821364 0.99907845 0.04286281 
-0.006576667 0.9996337 0.026252799 
-0.019072372 0.9998083 0.0044235 
-0.031270064 0.99946666 -0.009409921 
-0.037668232 0.9991478 -0.01687758 
-0.04103237 0.9987923 -0.027026085 
-0.04344891 0.9983596 -0.03728695 
-0.041546956 0.998421 -0.03780798 
-0.03254502 0.99911684 -0.026576677 
-0.017885132 0.99976355 -0.01236537 
0.0057800394 0.99995637 -0.0073417863 
0.033449516 0.99937195 -0.011699114 
0.050948903 0.99859816 -0.014350263 
0.051030114 0.9986773 -0.0062901434 
0.034455538 0.9993696 0.008556796 
0.01359078 0.9997335 0.018661352 
3.220253e-05 0.9998185 0.019053008 
-0.007888883 0.99989665 0.012020595 
-0.009370838 0.9999347 0.006544698 
-0.00048024755 0.9999041 0.013847898 
0.018175848 0.9992808 0.03327754 
0.04105829 0.9980411 0.047205325 
0.05754616 0.99750245 0.040954072 
0.05923734 0.9979865 0.022670275 
0.053613137 0.99850994 0.01017534 
0.061860517 0.9980459 0.008818017 
0.10570822 0.99415827 0.021800252 
0.20768043 0.97633785 0.060276326 
0.39760146 0.9062731 0.14346477 
0.6846183 0.67275757 0.28052655 
0.88011456 0.28188938 0.38201666 
-0.010926919 0.99940896 0.032595087 
-0.008501017 0.9994771 0.031199532 
-0.012549349 0.99977535 0.017084584 
-0.023778478 0.99970883 -0.004128163 
-0.03173802 0.9993233 -0.018591028 
-0.033122428 0.99911845 -0.025795955 
-0.033991683 0.99888104 -0.032881897 
-0.037477266 0.9985264 -0.039251525 
-0.037441358 0.9985723 -0.038101166 
-0.028093986 0.999282 -0.025421252 
-0.009216039 0.99992675 -0.007847588 
0.021376701 0.99976856 0.0024206573 
0.054443642 0.99851656 0.0008015297 
0.07281008 0.9973346 -0.0047427164 
0.065467075 0.997851 -0.0027288997 
0.03564207 0.99933404 0.007819798 