# OOMMF OVF 2.0
# Segment count: 1
# Begin: Segment
# Begin: Header
# Title: m
# meshtype: rectangular
# meshunit: m
# xmin: 0
# ymin: 0
# zmin: 0
# xmax: 1.6e-07
# ymax: 1.6e-07
# zmax: 5e-09
# valuedim: 3
# valuelabels: m_x m_y m_z
# valueunits: 1 1 1
# Desc: Total simulation time:  9.650903285953805e-11  s
# xbase: 2.5e-09
# ybase: 2.5e-09
# zbase: 2.5e-09
# xnodes: 32
# ynodes: 32
# znodes: 1
# xstepsize: 5e-09
# ystepsize: 5e-09
# zstepsize: 5e-09
# End: Header
# Begin: Data Text
-0.3639045 0.7063715 0.60713506 
-0.3686705 0.79947597 0.47425765 
-0.33162853 0.89834654 0.2880902 
-0.24405 0.9632478 0.112220004 
-0.13020979 0.99146456 0.0066072573 
-0.051370528 0.9984275 -0.022445334 
-0.040534094 0.9988488 -0.025655258 
-0.066453226 0.9967829 -0.044808574 
-0.08439878 0.9935373 -0.07589764 
-0.081049375 0.99148923 -0.101883516 
-0.07128626 0.99041206 -0.118331686 
-0.060292903 0.9892104 -0.13352005 
-0.030925754 0.9910605 -0.12977986 
-0.005016539 0.99618495 -0.08712377 
-0.022416286 0.9988675 -0.04196831 
-0.062893145 0.9975452 -0.030792564 
-0.07546018 0.9964916 -0.03619789 
-0.05279522 0.998091 -0.032047495 
-0.026425645 0.9993436 -0.024784382 
-0.019346928 0.9991856 -0.035410102 
-0.03306197 0.9975017 -0.06243005 
-0.061395794 0.994692 -0.08257343 
-0.08943227 0.99312955 -0.07546924 
-0.098142564 0.9944914 -0.036810048 
-0.08828892 0.99601966 0.012241914 
-0.070543714 0.9968097 0.03733574 
-0.046850603 0.9983854 0.03211974 
-0.022535495 0.9994617 0.02384557 
-0.005588394 0.9993982 0.034235116 
-0.0053060683 0.99829674 0.058099486 
-0.030226253 0.99648476 0.07813257 
-0.06328281 0.9942029 0.086925104 
-0.307436 0.9050436 0.29390353 
-0.26887453 0.9351386 0.23070014 
-0.22237918 0.9638156 0.14699301 
-0.16245778 0.98517215 0.055166505 
-0.08733949 0.996162 -0.0057552727 
-0.035444044 0.99914956 -0.021067483 
-0.031197984 0.9992877 -0.021229371 
-0.049869344 0.99817157 -0.03415538 
-0.059685543 0.9966702 -0.055553798 
-0.055107296 0.9957259 -0.0741154 
-0.04958618 0.9948098 -0.088851705 
-0.044866443 0.99336046 -0.1059343 
-0.024202934 0.99401104 -0.10656609 
-0.005304269 0.9974356 -0.07137317 
-0.021609044 0.99927837 -0.031240689 
-0.05678525 0.9982108 -0.018725662 
-0.06829393 0.997421 -0.022074673 
-0.048786804 0.9985999 -0.020450735 
-0.024360092 0.9995409 -0.018012065 
-0.015839886 0.99940515 -0.030637749 
-0.025876133 0.9980595 -0.056636523 
-0.048732404 0.9958979 -0.07624164 
-0.071161754 0.99489367 -0.071573325 
-0.078319944 0.99615914 -0.039153945 
-0.07142039 0.9974449 0.0016826217 
-0.05807955 0.99807996 0.021522414 
-0.038969208 0.9991071 0.01632297 
-0.01905796 0.99976903 0.009932374 
-0.005220426 0.9997742 0.02059964 
-0.0043795775 0.9990397 0.043596104 
-0.023012884 0.9976994 0.063769385 
-0.04624867 0.9961876 0.073967956 
-0.21962984 0.92391354 -0.3132834 
-0.11136253 0.968137 -0.22429706 
-0.06509376 0.9924516 -0.103935756 
-0.047585897 0.99761254 -0.05004801 
-0.025526801 0.99909484 -0.03402904 
-0.012900778 0.99965614 -0.022832906 
-0.022373296 0.99960726 -0.016875807 
-0.03638035 0.99908334 -0.02256261 
-0.03880917 0.9987223 -0.032367073 
-0.033809252 0.9985604 -0.041642748 
-0.032924335 0.9979643 -0.054618664 
-0.033248883 0.9966431 -0.074813336 
-0.019051988 0.99653375 -0.080979 
-0.0047140964 0.99850965 -0.054371372 
-0.01757368 0.9996469 -0.019934407 
-0.04584333 0.99892724 -0.006548143 
-0.056048438 0.99838614 -0.009157073 
-0.040502332 0.99910605 -0.012111142 
-0.018863887 0.9996974 -0.015793093 
-0.009599976 0.999503 -0.030026352 
-0.016487775 0.9984148 -0.053815365 
-0.033794194 0.99683595 -0.0719463 
-0.050133806 0.9963699 -0.06880115 
-0.05607 0.9975492 -0.041855253 
-0.053604327 0.99852026 -0.009167224 
-0.046314783 0.998913 0.0052858037 
-0.03284242 0.99946046 0.00052391266 
-0.017850265 0.99983513 -0.0033433489 
-0.007378635 0.9999433 0.0076894495 
-0.0060068187 0.9995531 0.029287325 
-0.01883708 0.998627 0.048880737 
-0.035366368 0.9975938 0.05963048 
0.2452139 -0.071133845 -0.9668558 
0.28370926 0.53409076 -0.79640204 
0.17755666 0.90718377 -0.3814333 
0.08624076 0.98478216 -0.15088633 
0.037479237 0.9976286 -0.05772749 
0.007868632 0.9997192 -0.022350583 
-0.017524624 0.9997847 -0.01111548 
-0.032021504 0.99942255 -0.011366275 
-0.032700345 0.9993858 -0.012603308 
-0.02949176 0.99945325 -0.014953947 
-0.03059983 0.9991837 -0.026377186 
-0.029617663 0.99841416 -0.047874082 
-0.014603426 0.99824697 -0.057356942 
0.0005241189 0.99926215 -0.03840435 
-0.0067719077 0.99991745 -0.010923554 
-0.028303506 0.9995994 0.00010901341 
-0.038240265 0.99925596 -0.005022414 
-0.028192893 0.9995084 -0.013716925 
-0.011371866 0.999696 -0.021876512 
-0.0033854148 0.999405 -0.034324605 
-0.008520921 0.99861157 -0.05198423 
-0.021358477 0.997664 -0.06488785 
-0.033054605 0.9976486 -0.060038928 
-0.03893889 0.9985853 -0.03621245 
-0.040894438 0.9991108 -0.010257988 
-0.038706504 0.9992504 -0.0006266992 
-0.029424587 0.99955344 -0.005207721 
-0.01776859 0.99981433 -0.007454996 
-0.009788411 0.99994946 0.0023075282 
-0.008415113 0.9997656 0.01995176 
-0.017272776 0.999209 0.035821743 
-0.029170692 0.99858195 0.04453395 
0.35117662 -0.6174372 -0.70387954 
0.48165563 0.06889403 -0.87364846 
0.31923676 0.8171232 -0.4799977 
0.1533895 0.97156733 -0.18035701 
0.06391424 0.99622273 -0.058783326 
0.014375158 0.99976116 -0.0164621 
-0.017250614 0.99984264 -0.0041392995 
-0.032873373 0.99945414 -0.0033076797 
-0.035318073 0.9993718 -0.0029442464 
-0.034133423 0.99941045 -0.0037004685 
-0.0331159 0.99936175 -0.013399263 
-0.02501058 0.9991961 -0.031329628 
-0.004831925 0.9992428 -0.038606975 
0.012075127 0.99964345 -0.023819504 
0.0081922095 0.99996114 -0.0032667324 
-0.009721434 0.999949 0.0027665272 
-0.021027464 0.9997558 -0.006800175 
-0.0163459 0.9996623 -0.020204643 
-0.0039409394 0.9995549 -0.029574608 
0.002976284 0.99932176 -0.036703035 
-0.00024396679 0.9989787 -0.04518484 
-0.009035304 0.99869186 -0.05032858 
-0.017352942 0.9989571 -0.042234246 
-0.023683354 0.9994965 -0.021118157 
-0.02886556 0.9995807 -0.0022927783 
-0.030235095 0.9995421 0.0011578648 
-0.0241794 0.9996913 -0.00571474 
-0.0153051745 0.9998416 -0.009097555 
-0.010000496 0.9999458 -0.0028944935 
-0.01025514 0.9999096 0.00870616 
-0.017684925 0.99967194 0.01852988 
-0.026776833 0.9993683 0.023368096 
0.31296867 -0.56952477 -0.7600606 
0.413459 0.1480062 -0.898413 
0.27069223 0.8452515 -0.4607338 
0.12838851 0.9785418 -0.16115992 
0.048518177 0.99778926 -0.04541525 
0.004890691 0.9999614 -0.0073074754 
-0.02137387 0.9997685 0.0024884401 
-0.03450555 0.99940443 0.00043317408 
-0.03753221 0.9992901 -0.0032579678 
-0.035778414 0.99933547 -0.006981371 
-0.029115625 0.99946815 -0.014688211 
-0.012903064 0.99961275 -0.024657981 
0.0101911025 0.99963355 -0.025080469 
0.02496365 0.9996242 -0.011328725 
0.020070352 0.999794 0.003022356 
0.0024327359 0.9999909 0.0035111154 
-0.010402398 0.9999032 -0.0092439465 
-0.008505699 0.99967957 -0.02384451 
0.0020124891 0.9995122 -0.031167008 
0.009316368 0.9994429 -0.032050245 
0.00877112 0.9994406 -0.032273885 
0.0037805352 0.9995095 -0.031087475 
-0.0022358194 0.999763 -0.021654053 
-0.009147839 0.9999432 -0.0054743215 
-0.01640856 0.9998558 0.004380197 
-0.020625304 0.99978733 -0.00013520318 
-0.01822949 0.9997697 -0.011324835 
-0.013086773 0.9997715 -0.016903339 
-0.011561014 0.99983895 -0.013733601 
-0.014990692 0.9998621 -0.0071484805 
-0.022619653 0.9997398 -0.0029388731 
-0.029745076 0.9995556 -0.002003088 
0.13931799 0.087123975 -0.9864076 
0.18622933 0.6269563 -0.7564685 
0.12767094 0.93496406 -0.3309719 
0.054425176 0.9927994 -0.10671073 
0.006931776 0.99964803 -0.025608173 
-0.016664669 0.9998609 -0.0007647368 
-0.029280078 0.99955994 0.0047791167 
-0.03577627 0.9993598 0.00029237123 
-0.036441 0.99930364 -0.008019652 
-0.031025613 0.9993894 -0.01606827 
-0.018217416 0.9995985 -0.021700364 
0.0020329498 0.99973905 -0.022754591 
0.023130817 0.9996051 -0.01595564 
0.033053603 0.99944943 -0.0028849153 
0.025451168 0.99965805 0.005997917 
0.007290781 0.9999702 0.0025319727 
-0.005473763 0.9999315 -0.010348917 
-0.0036891403 0.99973387 -0.02277667 
0.0056296973 0.9996277 -0.026698772 
0.011489516 0.9996678 -0.023071596 
0.010785941 0.99977076 -0.018495794 
0.0067508128 0.99987847 -0.014058368 
0.0012541949 0.9999855 -0.0052482868 
-0.005756429 0.9999682 0.005529889 
-0.012894521 0.9998859 0.007869333 
-0.017638493 0.99984217 -0.002117329 
-0.017370742 0.9997346 -0.015139553 
-0.014808738 0.9996861 -0.020207934 
-0.015446975 0.9997319 -0.01725513 
-0.020079082 0.99970776 -0.013464051 
-0.026300594 0.99956477 -0.013365029 
-0.03062898 0.9994113 -0.015462078 
-0.014657713 0.85159177 -0.52400064 
0.016655937 0.9358193 -0.3520863 
0.010051822 0.98793155 -0.15456446 
-0.017633233 0.9986294 -0.04927821 
-0.033725932 0.9993573 -0.012152205 
-0.035787933 0.9993594 0.00013343841 
-0.03544272 0.99936306 0.00416406 
-0.0359355 0.9993542 -0.00010615632 
-0.033008423 0.9993937 -0.011082485 
-0.023386199 0.9994824 -0.022091841 
-0.0082358755 0.9996486 -0.025196275 
0.009685264 0.99976575 -0.019357849 
0.02576202 0.9996293 -0.008807964 
0.03182072 0.99949265 0.0014211824 
0.023459917 0.99971384 0.004681009 
0.0077907695 0.9999682 -0.0017511199 
-0.00069776207 0.99991196 -0.013252429 
0.0032441742 0.9997484 -0.02219401 
0.009509388 0.9996908 -0.022975888 
0.008753195 0.9998157 -0.017086273 
0.0017773935 0.99994546 -0.01029438 
-0.0063556866 0.99997365 -0.0035054141 
-0.013715021 0.9998874 0.006088568 
-0.019824145 0.9996869 0.015273635 
-0.023243833 0.99960536 0.015780348 
-0.023599844 0.99970376 0.0059588538 
-0.020559432 0.99977714 -0.0048112436 
-0.016164338 0.99984485 -0.0069970153 
-0.014735515 0.9998867 -0.003072376 
-0.01672971 0.99985915 -0.001367729 
-0.019182334 0.9998054 -0.0046282145 
-0.020192733 0.9997555 -0.009019108 
-0.04903908 0.979849 -0.19362673 
-0.037190918 0.9903851 -0.13324521 
-0.04094235 0.99717075 -0.06304318 
-0.051275484 0.9984101 -0.023415862 
-0.050238125 0.9987113 -0.0072056972 
-0.04215875 0.99910975 0.0015841007 
-0.03667201 0.9993116 0.0055994643 
-0.0333714 0.99944216 0.0013214406 
-0.02693282 0.99957883 -0.010809258 
-0.016458377 0.9996093 -0.022590999 
-0.0055838204 0.9997 -0.023847926 
0.005782238 0.99986005 -0.015704054 
0.017574709 0.9998287 -0.0058102407 
0.022572532 0.99974513 0.00025300906 
0.016995624 0.9998551 -0.0010368007 
0.008494893 0.9999273 -0.008569159 
0.0077059898 0.9998226 -0.017188963 
0.0136416545 0.99966 -0.02222511 
0.014445012 0.99967563 -0.020975076 
0.004212597 0.9998842 -0.014627998 
-0.011646649 0.9999094 -0.006759742 
-0.02549242 0.999672 0.0024563496 
-0.034551095 0.99929774 0.01449979 
-0.03790232 0.99895346 0.025603198 
-0.034947693 0.9989868 0.02835956 
-0.027899792 0.99938357 0.021309003 
-0.019060498 0.999731 0.013222519 
-0.010586444 0.9998644 0.012613161 
-0.0056784176 0.99985456 0.016082691 
-0.0042504645 0.999869 0.015624763 
-0.0032788266 0.9999425 0.010220556 
-0.002052412 0.9999856 0.004959989 
-0.019881554 0.99662536 -0.07964056 
-0.022890555 0.998107 -0.057082202 
-0.035039444 0.9989471 -0.029615443 
-0.04533011 0.9989225 -0.009949264 
-0.04512241 0.998979 0.0022313248 
-0.0394089 0.99918795 0.008392639 
-0.03305614 0.99941844 0.00837487 
-0.025395112 0.99967486 0.0022926205 
-0.01642741 0.9998173 -0.0097727785 
-0.009556582 0.99971884 -0.021703448 
-0.006456765 0.9996962 -0.023791097 
-0.0012851191 0.99985945 -0.016714964 
0.007390865 0.9999435 -0.007653856 
0.011713442 0.99992687 -0.0030352836 
0.010370044 0.9999312 -0.0054897047 
0.010418925 0.999879 -0.0115557145 
0.015870139 0.99974036 -0.016351493 
0.02124883 0.9996149 -0.017850075 
0.016793573 0.99974287 -0.015241161 
0.0005099101 0.9999618 -0.008731585 
-0.019469803 0.9998104 -0.00029804054 
-0.03429291 0.9993643 0.009748359 
-0.04146432 0.9988877 0.0224514 
-0.040811528 0.9985819 0.03418737 
-0.033012267 0.99875426 0.037419606 
-0.021456143 0.99931276 0.030228108 
-0.009195185 0.9997323 0.021231992 
0.0014679909 0.9998193 0.01895623 
0.008202318 0.99974966 0.020818429 
0.011375256 0.9997333 0.020096354 
0.01338906 0.9997794 0.016182993 
0.0147787435 0.9998079 0.012875708 
0.013732094 0.9994595 -0.029868424 
0.0024637724 0.9997963 -0.02003374 
-0.017382488 0.999832 -0.005837887 
-0.03397267 0.99939394 0.0075921174 
-0.0402789 0.9990769 0.014933846 
-0.03729991 0.9992108 0.013661696 
-0.027530812 0.9995929 0.007495279 
-0.014319189 0.9998975 -0.000246031 
-0.0039615473 0.99991465 -0.012458677 
-0.0011264082 0.99966156 -0.025991326 
-0.003201747 0.9995396 -0.030173257 
-0.0017337493 0.99974525 -0.022504382 
0.0027768265 0.9999417 -0.010437398 
0.0047246944 0.9999805 -0.004078144 
0.0071912957 0.99995804 -0.005676422 
0.013124106 0.999873 -0.009051331 
0.019011514 0.99977034 -0.00989606 
0.020139223 0.9997639 -0.0081529245 
0.012559886 0.99991465 -0.003604228 
-0.0033868789 0.99998564 0.0041624736 
-0.020212479 0.9997123 0.012921862 
-0.030147033 0.9993178 0.021334028 
-0.032069836 0.9990017 0.03109888 
-0.027599744 0.9988464 0.039296888 
-0.018712647 0.9990928 0.03825504 
-0.007872014 0.9996172 0.026525792 
0.0034524933 0.9999053 0.01332848 
0.013353933 0.99988264 0.0075155334 
0.020021398 0.999771 0.0075642806 
0.023523906 0.99968946 0.008221061 
0.025035257 0.99965155 0.008377334 
0.025508087 0.99963707 0.008671396 
0.012205157 0.99991715 -0.004094554 
-5.5630285e-06 1 -0.00021593811 
-0.019492637 0.9997817 0.007526076 
-0.035831235 0.9992386 0.015439347 
-0.041404016 0.9990124 0.016125157 
-0.034706466 0.99936074 0.008585993 
-0.018754039 0.99982405 -0.00034679475 
-0.00061996793 0.999968 -0.007977864 
0.010893011 0.99974245 -0.019913532 
0.012069871 0.9993655 -0.03351186 
0.0075359866 0.99930304 -0.03656285 
0.004151587 0.9996806 -0.024931272 
0.0013838741 0.99995565 -0.009322773 
0.0008231398 0.9999965 -0.0025332244 
0.007003373 0.9999696 -0.0034391622 
0.013848143 0.9998956 -0.0041545867 
0.01393212 0.99989986 -0.002482852 
0.009819585 0.99995095 0.0013520967 
0.0033826292 0.9999591 0.00839267 
-0.007072328 0.99980605 0.018383779 
-0.01749483 0.9994698 0.027459593 
-0.021476226 0.99920845 0.03348584 
-0.018586453 0.99906963 0.038915977 
-0.012299291 0.99907756 0.041143145 
-0.005639511 0.9994409 0.032957673 
0.0008459531 0.99989086 0.014755308 
0.008187409 0.9999614 -0.0031907884 
0.015594846 0.9998015 -0.012405818 
0.021338392 0.9996708 -0.014248074 
0.024385255 0.99962074 -0.012802018 
0.024684591 0.9996502 -0.009497842 
0.023956725 0.9996918 -0.006512223 
-0.008182296 0.99994713 -0.006245614 
-0.015459745 0.99987036 -0.0045031146 
-0.026638353 0.999645 0.0007108258 
-0.034841675 0.9993724 0.0063825254 
-0.03329997 0.9994281 0.005888906 
-0.02055757 0.9997887 -0.00020619655 
-0.0012557993 0.99998575 -0.0051996796 
0.016313968 0.9998241 -0.0092515815 
0.024877511 0.9995105 -0.018968068 
0.02295636 0.99926096 -0.03083167 
0.014601864 0.99937785 -0.032106556 
0.0040765204 0.99979687 -0.019740669 
-0.0044959816 0.9999676 -0.006682364 
-0.0030068464 0.9999925 -0.0024593268 
0.0067358334 0.99997544 -0.0019708965 
0.009916451 0.9999503 -0.0010346756 
0.0033956547 0.9999942 -0.00024434048 
-0.0012353851 0.99999386 0.0032757905 
-0.0021128573 0.999925 0.012064986 
-0.0071691 0.999687 0.023970403 
-0.015066313 0.99931526 0.033795573 
-0.018161181 0.9990659 0.03921363 
-0.014915125 0.99899894 0.042175613 
-0.009711347 0.99915797 0.039864298 
-0.006097829 0.99962413 0.026729528 
-0.0032654547 0.99997747 0.005864139 
0.001199068 0.99992454 -0.012233841 
0.0070632226 0.9997463 -0.021387309 
0.011942771 0.9996324 -0.02434168 
0.01364314 0.99961025 -0.02435618 
0.012162579 0.99968916 -0.02176448 
0.010296505 0.9997666 -0.018996881 
-0.0192405 0.9996242 -0.019528858 
-0.01973289 0.9996544 -0.017373208 
-0.020738823 0.99971795 -0.011579916 
-0.019911598 0.99979323 -0.004115985 
-0.012755521 0.99991864 -0.00023679384 
0.0012135342 0.99999905 0.0007908759 
0.016474672 0.9998585 0.0033944093 
0.026069378 0.99965256 0.0039127823 
0.02699 0.99962455 -0.0047323797 
0.020952202 0.99962926 -0.017389907 
0.009971346 0.99973327 -0.02083448 
-0.0035367399 0.99990886 -0.013028262 
-0.010993518 0.9999279 -0.0048487047 
-0.0048106075 0.99998826 -0.00071831956 
0.004637607 0.9999863 0.0024268737 
0.0025325473 0.9999955 0.0016268039 
-0.0054078563 0.99998146 -0.002790039 
-0.00507167 0.999984 -0.0025094724 
-0.00080296845 0.99998456 0.0054949094 
-0.0054221223 0.9998353 0.017320542 
-0.016265767 0.9994815 0.02778942 
-0.022659402 0.99914956 0.03445146 
-0.021854844 0.9990453 0.03782954 
-0.018224744 0.9992089 0.035349242 
-0.015024481 0.9996023 0.023864364 
-0.011161562 0.9999079 0.007726109 
-0.0048834165 0.9999773 -0.0046507395 
0.0028907566 0.99994105 -0.010476543 
0.008636572 0.99986506 -0.013978238 
0.009639972 0.9998038 -0.01730741 
0.007127188 0.9998034 -0.01850494 
0.0046860315 0.99982566 -0.01807747 
-0.022617258 0.9992963 -0.02992502 
-0.018469768 0.9994718 -0.02674011 
-0.012745653 0.9997205 -0.01991154 
-0.006747146 0.9999243 -0.010288015 
0.0016673489 0.9999973 -0.0016500783 
0.0123755485 0.99990445 0.006164094 
0.020440225 0.9996831 0.014698214 
0.02103521 0.99962264 0.017666887 
0.015528739 0.99984473 0.008336078 
0.008662918 0.9999437 -0.006141841 
0.0006725494 0.9999258 -0.012161937 
-0.008253186 0.99993986 -0.0072225374 
-0.010812429 0.99994123 0.00088025857 
-0.0039167446 0.9999618 0.007823604 
0.0010302364 0.9999402 0.0108923875 
-0.0032511351 0.9999843 0.0045698965 
-0.0067878496 0.99995923 -0.0059645567 
-0.0010245112 0.9999605 -0.0088356985 
0.00411337 0.9999887 -0.0023953845 
-0.002823626 0.9999644 0.007955092 
-0.01567211 0.9997334 0.01695716 
-0.023101147 0.99948114 0.022445422 
-0.023244543 0.9994182 0.02496137 
-0.020144701 0.9995188 0.023589749 
-0.015461207 0.9997281 0.017455572 
-0.0077467896 0.99992484 0.00950223 
0.0029175929 0.9999861 0.0044018207 
0.01397008 0.99989986 0.0022817515 
0.020929048 0.99977994 -0.001474394 
0.02194943 0.9997293 -0.0077272975 
0.019907512 0.9997233 -0.012530949 
0.017942859 0.99973816 -0.01420953 
-0.020373652 0.99891865 -0.0417898 
-0.015045615 0.99917644 -0.037685085 
-0.007769507 0.9994978 -0.03072387 
-0.0014161251 0.9997813 -0.020867847 
0.004630154 0.9999429 -0.009630915 
0.010342117 0.9999424 0.002862932 
0.012658914 0.9997987 0.015562059 
0.008380961 0.99974734 0.020858033 
0.0009507545 0.9999147 0.0130331 
-0.003028486 0.9999954 0.00013626694 
-0.003785968 0.99998266 -0.004536827 
-0.0047957636 0.99998593 0.002264708 
-0.0042601316 0.9999116 0.012603441 
-0.0011093164 0.9998198 0.018950682 
-0.0009449543 0.999849 0.017350968 
-0.0040807435 0.9999728 0.006156682 
-0.002234894 0.9999792 -0.0060554617 
0.0061429203 0.9999431 -0.00872851 
0.010185155 0.99994314 -0.003188972 
0.0031933063 0.9999886 0.0035517286 
-0.007163902 0.9999528 0.006575227 
-0.012155134 0.9999056 0.0064110872 
-0.012331373 0.99990827 0.0056166956 
-0.011023964 0.9999271 0.00492524 
-0.00689767 0.9999654 0.0046438924 
0.0021680736 0.9999863 0.0047700307 
0.014341631 0.9998787 0.0060824146 
0.026025008 0.99963665 0.0070333234 
0.03322949 0.9994402 0.0038848359 
0.03587976 0.99935347 -0.002332786 
0.0370809 0.99929005 -0.0066687544 
0.0376097 0.9992654 -0.0073642647 
-0.0064175436 0.99881744 -0.048193105 
-0.002230902 0.9990338 -0.043893266 
0.0021277685 0.9992488 -0.038696013 
0.0039739134 0.9994815 -0.031952865 
0.004582763 0.999751 -0.021844331 
0.005610955 0.99995565 -0.007562472 
0.0056999517 0.999951 0.008102325 
0.0010618859 0.99985147 0.017202517 
-0.005952673 0.9998674 0.015158743 
-0.007640976 0.99992967 0.009076999 
-0.002981701 0.9999446 0.010092145 
0.0011573269 0.99979967 0.019987151 
0.0019384647 0.9995889 0.028608354 
0.0014876454 0.9995984 0.028300993 
-3.9639064e-05 0.9998055 0.019720636 
0.00016510196 0.9999809 0.0061805556 
0.0064519923 0.99996924 -0.004479512 
0.015154095 0.9998638 -0.0065377806 
0.017189462 0.999845 -0.0038192198 
0.010741721 0.9999381 -0.002907223 
0.0036179908 0.9999743 -0.0061930106 
0.0009452264 0.99995285 -0.00966937 
-0.00047432393 0.99994606 -0.010380059 
-0.0026856505 0.9999646 -0.007983965 
-0.0013445382 0.99999726 -0.001947891 
0.005829048 0.99996984 0.0051361136 
0.016549328 0.9998024 0.011014736 
0.02812432 0.99950874 0.013838799 
0.038009703 0.99920017 0.012419471 
0.04657104 0.99886215 0.010273122 
0.054565452 0.9984421 0.011665555 
0.059503928 0.9981098 0.015367539 
0.0064398437 0.9993173 -0.036381185 
0.0093721775 0.9993706 -0.034215413 
0.0102093825 0.9993571 -0.03436756 
0.0069669234 0.99936426 -0.03496439 
0.0033453547 0.99953204 -0.030404203 
0.0036288532 0.9998272 -0.01823514 
0.0064083096 0.9999776 -0.001969157 
0.004825551 0.99992704 0.011075864 
-0.0018225414 0.99985063 0.017191641 
-0.005378901 0.99977416 0.020563612 
-0.0022051674 0.99961156 0.027781226 
0.0011530925 0.9992815 0.037884206 
0.0013295268 0.9991563 0.0410495 
0.0010704211 0.99944127 0.03340893 
0.0019022471 0.9997936 0.020230684 
0.00658766 0.99995285 0.007138632 
0.015857605 0.9998731 -0.0015658893 
0.023211472 0.99971485 -0.0056247697 
0.022470811 0.99971414 -0.008175693 
0.016467072 0.9997941 -0.011856741 
0.012668949 0.9997908 -0.016058605 
0.011877763 0.9997984 -0.016192257 
0.009108705 0.9998861 -0.012042227 
0.0044403197 0.9999766 -0.0052192416 
0.0035429047 0.9999828 0.004682309 
0.00806533 0.9998702 0.013954089 
0.017367665 0.999667 0.019084267 
0.03152783 0.9993085 0.019707792 
0.048948295 0.9986283 0.01859303 
0.068377554 0.99742866 0.02146355 
0.08677844 0.9957738 0.030066548 
0.09810974 0.9944278 0.038572542 
0.002988551 0.9998522 -0.016931683 
0.006334414 0.99980986 -0.018445363 
0.006921865 0.99966246 -0.025041627 
0.0027235784 0.9994478 -0.033118173 
-0.00043761428 0.9994057 -0.03446873 
0.0037461177 0.99966204 -0.025724674 
0.0125204725 0.99986523 -0.010623183 
0.015636321 0.9998675 0.004524596 
0.009196538 0.99982333 0.016392292 
0.0005054112 0.9996672 0.02579233 
-0.003778002 0.9993832 0.034913033 
-0.0056102197 0.9991085 0.041842513 
-0.0060499054 0.99917775 0.04009217 
-0.0041125338 0.9995583 0.02943146 
-0.00028024163 0.9998563 0.016953116 
0.007399739 0.9999373 0.008413472 
0.018036583 0.99983263 0.0030938215 
0.024674376 0.9996906 -0.0031460105 
0.023944275 0.999667 -0.0096258465 
0.021724144 0.9996695 -0.013747537 
0.023098722 0.99963796 -0.013804348 
0.024246642 0.9996762 -0.00772673 
0.020987762 0.99977916 0.0011055053 
0.016160084 0.9998259 0.0093293 
0.014506646 0.9997487 0.01709326 
0.016779762 0.9996373 0.021066349 
0.025648996 0.99949944 0.018520817 
0.044551354 0.998932 0.012250661 
0.07207058 0.9973579 0.009111544 
0.104687415 0.99439836 0.014577383 
0.1361382 0.9903386 0.026379336 
0.15621746 0.9870741 0.035792116 
-0.0064195124 0.99997157 -0.0039760866 
-0.0011471948 0.9999656 -0.008216984 
0.0017812472 0.99983835 -0.017893363 
-0.0010753528 0.999604 -0.028120397 
-0.0029711758 0.9995201 -0.030833788 
0.004007501 0.99971485 -0.023544518 
0.016410252 0.9998128 -0.010250492 
0.022472635 0.99974006 0.0038647018 
0.016388912 0.9997389 0.01592928 
0.0036247713 0.99968904 0.024675295 
-0.007483674 0.9995232 0.029955937 
-0.0137191145 0.9994315 0.030798556 
-0.013772827 0.99960226 0.024610177 
-0.009575169 0.9998629 0.013511116 
-0.004202468 0.9999772 0.0053069824 
0.0037755207 0.9999835 0.0043450734 
0.013351723 0.99990356 0.0038270722 
0.018759817 0.99982053 -0.0026613593 
0.019204905 0.9997752 -0.008987561 
0.021686507 0.9997254 -0.008887633 
0.02730987 0.99962384 -0.0025569298 
0.029124381 0.99954337 0.008060294 
0.026261767 0.9994926 0.018029638 
0.023906743 0.9994224 0.024151698 
0.024290817 0.9993614 0.026208417 
0.027096862 0.99939865 0.02163381 
0.03754534 0.99924767 0.009729392 
0.06182162 0.99808395 -0.0025592141 
0.100124076 0.9949539 -0.006478508 
0.14902489 0.9888323 -0.001529531 
0.20072562 0.9796339 0.0051699975 
0.23692825 0.9714999 0.0072852336 
-0.007647017 0.9999295 0.009093757 
-0.00070635404 0.9999929 0.0037162348 
0.0039169863 0.9999762 -0.005696191 
0.00061812776 0.99990374 -0.013863614 
-0.003894716 0.99987626 -0.015249177 
-3.564146e-05 0.999956 -0.0093862275 
0.010148025 0.9999485 0.0002712792 
0.016261682 0.99981445 0.010322451 
0.012113614 0.9997595 0.018281695 
0.0002470133 0.9997583 0.021987356 
-0.012244883 0.9997089 0.020787913 
-0.018670022 0.9997103 0.015195899 
-0.015597278 0.9998629 0.0055762907 
-0.007575726 0.9999605 -0.0046529276 
-0.001078809 0.9999688 -0.007822227 
0.0036591801 0.99998844 -0.0031312176 
0.007223723 0.9999719 -0.001999563 
0.00786369 0.9999327 -0.008533941 
0.007699415 0.99990416 -0.011514105 
0.012460692 0.9999096 -0.005056646 
0.01863645 0.99980557 0.00644622 
0.0188055 0.9996562 0.0182718 
0.016607605 0.9994994 0.026931403 
0.01882754 0.9993539 0.03061839 
0.024955036 0.99929494 0.028055184 
0.033017498 0.9993117 0.01691528 
0.04892257 0.9988021 -0.001037389 
0.08176297 0.9965206 -0.016174711 
0.13630602 0.99039197 -0.023334024 
0.21270694 0.97659916 -0.03178084 
0.30230594 0.9517921 -0.05199087 
0.37014428 0.92575884 -0.07722679 
-0.005081127 0.99969566 0.02414242 
0.0024826068 0.9998265 0.018460516 
0.007643804 0.9999186 0.010227291 
0.0031732074 0.99998516 0.004448898 
-0.0049179383 0.99998176 0.0035120705 
-0.006143293 0.999964 0.0058688396 
-0.00014596329 0.9999523 0.009766807 
0.0056103324 0.9998805 0.0144066 
0.0053298534 0.9998272 0.017811056 
-0.0020722449 0.99984264 0.017619628 
-0.012636512 0.9998282 0.013558829 
-0.017710118 0.99981797 0.007108996 
-0.0116189895 0.99993217 -0.00089859456 
-0.00042384243 0.9999663 -0.008199349 
0.005695881 0.99993914 -0.009458711 
0.00486622 0.9999613 -0.007328795 
0.00085403497 0.9999366 -0.011237428 
-0.0036004737 0.9998268 -0.018264787 
-0.0049622245 0.99985504 -0.016294047 
-0.00082125084 0.9999888 -0.0046626017 
0.0021962505 0.9999616 0.008490788 
-0.00072447426 0.9998208 0.018913468 
-0.0019334536 0.9996584 0.026064603 
0.0061158147 0.99956703 0.028781695 
0.020845972 0.99949515 0.02397906 
0.03807549 0.99923366 0.009072376 
0.06294625 0.9979316 -0.01305106 
0.10700364 0.9936275 -0.03542124 
0.18055221 0.98148334 -0.06396498 
0.28900978 0.94958663 -0.121485345 
0.4221286 0.8796333 -0.21920916 
0.52224773 0.79218024 -0.31576553 
-0.004204564 0.99970394 0.02396624 
0.0035952958 0.9998061 0.01935817 
0.009684844 0.99985546 0.013973929 
0.0065091527 0.999909 0.011824448 
-0.0011618275 0.99992436 0.012244045 
-0.0038195513 0.99991965 0.012093955 
0.00043877284 0.99992913 0.011902298 
0.0072386465 0.99988264 0.013506609 
0.011450693 0.9998165 0.015362479 
0.008294326 0.99985266 0.0150283305 
-0.0019344351 0.9999111 0.013197486 
-0.009811199 0.99988437 0.0116174575 
-0.0067492267 0.9999376 0.008905102 
0.0021633143 0.99999005 0.00390133 
0.0053744554 0.9999848 -0.0012816559 
0.00039616402 0.99996173 -0.008737344 
-0.007762396 0.99978334 -0.019312833 
-0.014688058 0.99961025 -0.023738505 
-0.016505396 0.9997421 -0.015598171 
-0.013609184 0.9999055 -0.001974443 
-0.013476142 0.9998764 0.008108169 
-0.017702242 0.9997428 0.014181937 
-0.016733574 0.9996756 0.019204786 
-0.0026280384 0.99974984 0.022212548 
0.020994175 0.9996159 0.01809397 
0.04738896 0.9988741 0.0022204632 
0.07929034 0.99654216 -0.024834832 
0.12785557 0.9897353 -0.06385134 
0.2044776 0.96950036 -0.13512243 
0.3137104 0.90864646 -0.2755855 
0.43565735 0.75285006 -0.49337566 
0.49892062 0.5373362 -0.6799619 
0.00048354777 0.9999954 0.0029827224 
0.008502007 0.99996334 0.0010323107 
0.01611974 0.99986976 0.000842539 
0.016503109 0.9998521 0.004849242 
0.012468564 0.9998751 0.0097105885 
0.010906271 0.9998761 0.011350131 
0.014647641 0.99982107 0.011967271 
0.02252937 0.999642 0.014436291 
0.029865703 0.99941444 0.016698202 
0.02876137 0.9994424 0.016966447 
0.016443336 0.9996959 0.01837902 
0.0022520241 0.99973994 0.022694938 
-0.0026214877 0.99968684 0.024886083 
-0.00038755854 0.99980515 0.019736443 
-0.0010007309 0.99997115 0.007533574 
-0.0076611936 0.99992603 -0.009452817 
-0.017294364 0.9995876 -0.022926074 
-0.025220808 0.999442 -0.021901278 
-0.026240338 0.99961823 -0.00866302 
-0.022529606 0.99974144 0.0030951784 
-0.022644956 0.9997253 0.006065582 
-0.026797857 0.99962485 0.0056577926 
-0.024400666 0.9996622 0.008945444 
-0.0064085936 0.99987143 0.014702945 
0.023104653 0.99963176 0.014233827 
0.054577142 0.99850935 -0.0006502187 
0.08732346 0.99567366 -0.0317603 
0.12910786 0.98783857 -0.08663894 
0.1852287 0.9633307 -0.19412474 
0.24886833 0.88472694 -0.3941101 
0.2880438 0.6742449 -0.6800182 
0.2616781 0.38452178 -0.88525003 
0.008420148 0.9998083 -0.017677452 
0.016507791 0.9997201 -0.016951956 
0.025151383 0.9996055 -0.012506445 
0.028475476 0.9995878 -0.003671746 
0.027174251 0.9996193 0.00478233 
0.025388615 0.9996349 0.009250315 
0.02706734 0.9995527 0.012717081 
0.03411821 0.999271 0.017132897 
0.042214923 0.9989264 0.019081969 
0.041902244 0.998951 0.018470215 
0.029002562 0.9993479 0.021508705 
0.011888164 0.99948996 0.02963987 
0.0016038263 0.99940366 0.034493756 
-0.0018903032 0.9995992 0.028246082 
-0.0054649417 0.999923 0.011142515 
-0.012843649 0.99985963 -0.01076643 
-0.023677416 0.99943 -0.024066232 
-0.0324476 0.9993102 -0.018063048 
-0.031485565 0.9995035 -0.0011880922 
-0.024549417 0.9996659 0.008087234 
-0.022899078 0.9997277 0.004494587 
-0.02703827 0.9996343 -0.0004535659 
-0.024816707 0.99968463 0.0038370092 
-0.0052068084 0.99988675 0.01412108 
0.027773492 0.9994748 0.016699575 
0.061452035 0.9981082 0.001921073 
0.09089709 0.9953929 -0.03050932 
0.119467705 0.9886904 -0.0906585 
0.14448155 0.9676847 -0.20666796 
0.14862989 0.90126866 -0.40696946 
0.10385686 0.7310157 -0.6744107 
0.02166474 0.5040176 -0.8634216 
0.004643826 0.99976856 -0.021005914 
0.012572709 0.9997373 -0.019167624 
0.021671236 0.9996709 -0.01373224 
0.02666872 0.9996284 -0.0056578848 
0.02661464 0.99964565 0.0006117304 
0.023935553 0.9997063 0.0038174314 
0.02370662 0.99968994 0.007620963 
0.029505678 0.9994938 0.011904669 
0.0371041 0.99924266 0.011721112 
0.03750772 0.9992559 0.008998542 
0.027578508 0.99954295 0.012384907 