# OOMMF OVF 2.0
# Segment count: 1
# Begin: Segment
# Begin: Header
# Title: m
# meshtype: rectangular
# meshunit: m
# xmin: 0
# ymin: 0
# zmin: 0
# xmax: 1.6e-07
# ymax: 1.6e-07
# zmax: 5e-09
# valuedim: 3
# valuelabels: m_x m_y m_z
# valueunits: 1 1 1
# Desc: Total simulation time:  2.9041761459599096e-11  s
# xbase: 2.5e-09
# ybase: 2.5e-09
# zbase: 2.5e-09
# xnodes: 32
# ynodes: 32
# znodes: 1
# xstepsize: 5e-09
# ystepsize: 5e-09
# zstepsize: 5e-09
# End: Header
# Begin: Data Text
-0.41503474 -0.7422673 -0.5261041 
-0.517332 -0.056003366 -0.85395044 
-0.3285708 0.8160485 -0.47550613 
-0.1691911 0.9712731 -0.16734092 
-0.11720671 0.99177265 -0.051474974 
-0.11233106 0.99341804 -0.022416893 
-0.103229284 0.99410146 -0.03325597 
-0.06155356 0.9967872 -0.05125069 
-0.008156721 0.9987116 -0.050086297 
0.01181683 0.9995953 -0.02587638 
-0.01872066 0.9997945 -0.0077825338 
-0.07392594 0.99725085 -0.0050676093 
-0.13394365 0.9909525 -0.008501993 
-0.17035872 0.9849257 -0.029989792 
-0.15463848 0.986743 -0.049246475 
-0.11526866 0.9930053 -0.025566636 
-0.10098827 0.9943851 0.031617027 
-0.11135229 0.9908694 0.07601724 
-0.11363135 0.98956287 0.08861917 
-0.09159908 0.9931169 0.0729964 
-0.049138144 0.9979225 0.041669436 
-9.503151e-07 0.999613 0.027819403 
0.04307358 0.99802697 0.045683756 
0.09050993 0.9933734 0.07083234 
0.14029635 0.9866177 0.083081454 
0.1555462 0.9850373 0.07420924 
0.120637394 0.99127257 0.053153478 
0.06989996 0.9964468 0.04698751 
0.044232324 0.99693 0.06460815 
0.04296912 0.9950249 0.08988417 
0.032709382 0.9948292 0.09615182 
0.008624358 0.9964342 0.08393115 
-0.6386183 -0.25897 -0.72463876 
-0.5254609 0.47773725 -0.70402986 
-0.2554125 0.90522695 -0.33960065 
-0.112128064 0.98456454 -0.13438776 
-0.0647469 0.9965905 -0.051140018 
-0.053917415 0.9983665 -0.018903097 
-0.040530413 0.9990552 -0.015687415 
-0.010011976 0.9995903 -0.026814427 
0.02062413 0.99943 -0.026731038 
0.020675246 0.99977845 -0.0039427984 
-0.018194322 0.99970245 0.016251542 
-0.07419326 0.9970732 0.018454356 
-0.12689565 0.99188703 0.0076024556 
-0.1473799 0.9889503 -0.016015677 
-0.12164986 0.99216574 -0.028432498 
-0.08556653 0.99632496 -0.00387084 
-0.078634046 0.9961043 0.03991287 
-0.09382753 0.9933691 0.06644071 
-0.101721324 0.99250555 0.067717694 
-0.091428466 0.99453 0.050508108 
-0.06660782 0.9975471 0.021525163 
-0.032874756 0.99944574 0.0052391808 
0.0030599805 0.99985975 0.016467389 
0.047519993 0.99810994 0.03896947 
0.09479166 0.9939486 0.05550633 
0.111683674 0.9920865 0.05736934 
0.08551206 0.9951435 0.048757296 
0.044167373 0.9977791 0.049861617 
0.021598134 0.9974052 0.068676986 
0.01898289 0.9955605 0.09218918 
0.012161987 0.99501383 0.09899293 
-0.0016259485 0.9959137 0.09029656 
-0.51500046 0.7091581 -0.48152813 
-0.34490255 0.8736859 -0.34309655 
-0.16219315 0.9702333 -0.17983556 
-0.057154868 0.9942814 -0.09021026 
-0.01622083 0.9988673 -0.044733893 
-5.5642745e-06 0.99985766 -0.016872203 
0.01677658 0.9998403 -0.006164656 
0.037623752 0.9992432 -0.009878783 
0.04885615 0.99879736 -0.004116005 
0.03224915 0.9992105 0.023205735 
-0.016017227 0.99873877 0.04758502 
-0.07757221 0.99585986 0.047387946 
-0.124030784 0.9919837 0.024179751 
-0.12571213 0.99205804 -0.004161128 
-0.08890926 0.99601287 -0.007322299 
-0.057561256 0.9981255 0.02078888 
-0.058047935 0.99699354 0.05132588 
-0.07583642 0.99538803 0.058751363 
-0.086872324 0.9951065 0.04707708 
-0.08776535 0.99575293 0.02780932 
-0.08259923 0.9965816 0.0015924993 
-0.06726953 0.99756354 -0.018486975 
-0.039259784 0.9990875 -0.016820518 
0.0024801388 0.99999636 0.0011393668 
0.045855593 0.9986732 0.023432173 
0.06297384 0.99723244 0.03951841 
0.04584546 0.9979057 0.0456354 
0.015772646 0.9984237 0.053863477 
-0.0023105787 0.99737483 0.072375156 
-0.005656756 0.99573433 0.092093356 
-0.008311425 0.99517614 0.097752415 
-0.013624812 0.9957053 0.09157266 
-0.36348522 0.91711426 -0.16364627 
-0.26420447 0.95751095 -0.11562355 
-0.13780397 0.9879818 -0.07001561 
-0.04788808 0.997927 -0.042992588 
-0.004624379 0.9996889 -0.024506886 
0.016837886 0.9998038 -0.010436213 
0.033980504 0.99941456 -0.0039761486 
0.047475915 0.99887043 -0.0020097094 
0.047722086 0.9987862 0.012200885 
0.0242934 0.998853 0.041261513 
-0.024327092 0.99777114 0.062137738 
-0.080968805 0.9950997 0.0567504 
-0.11442132 0.9930586 0.027246324 
-0.100259386 0.9949611 -0.0007407261 
-0.058283042 0.9982962 0.002789375 
-0.032577347 0.99898267 0.031183375 
-0.03866217 0.9978566 0.052797556 
-0.059828144 0.9969216 0.05067484 
-0.075593 0.996569 0.033704944 
-0.08482883 0.9962649 0.016139751 
-0.092433155 0.99570894 -0.004456623 
-0.0889657 0.99570936 -0.025457267 
-0.06443418 0.9973688 -0.033223458 
-0.023366643 0.9994454 -0.023728745 
0.015521023 0.99987936 -0.0006211214 
0.031293843 0.9991854 0.025483076 
0.0220203 0.9988453 0.04269971 
0.0030321619 0.99850035 0.054662343 
-0.010653683 0.9975004 0.06985403 
-0.014391236 0.9964631 0.08278948 
-0.012593601 0.996413 0.083681025 
-0.01049838 0.9969665 0.07712174 
-0.358567 0.931374 0.063026346 
-0.27329576 0.9607877 0.04686734 
-0.15788883 0.98718613 0.023125846 
-0.06961794 0.99754214 0.007945657 
-0.02111385 0.99977696 0.0005296159 
0.0037754118 0.999978 -0.005457238 
0.018111032 0.99978185 -0.010404177 
0.02674276 0.9996213 -0.0065060076 
0.025192682 0.9995844 0.014018098 
0.005812796 0.99909973 0.042024463 
-0.03075454 0.9979032 0.05695018 
-0.06874706 0.9964309 0.04898373 
-0.08454126 0.99617153 0.022249704 
-0.063383736 0.99798906 -0.0005567959 
-0.02756681 0.9996098 0.0044980077 
-0.012614361 0.99951637 0.028424287 
-0.025901074 0.99864024 0.04524222 
-0.05228339 0.99769145 0.043338962 
-0.072625175 0.9969 0.030266292 
-0.08503303 0.99618065 0.019836295 
-0.09744682 0.9952063 0.00828804 
-0.09851428 0.9950753 -0.010956462 
-0.072588876 0.99697584 -0.027749538 
-0.02888406 0.99915665 -0.029184276 
0.0076920656 0.9999154 -0.010490978 
0.022679001 0.9995745 0.018349588 
0.021179087 0.9989839 0.039783314 
0.012563082 0.9986052 0.051281985 
0.0018099517 0.99807084 0.062059864 
-0.0037331276 0.99762356 0.06879963 
0.00036312293 0.9979561 0.06390252 
0.00734608 0.9984673 0.05485577 
-0.3498567 0.8742341 0.3366231 
-0.25923693 0.93479335 0.24281208 
-0.15423813 0.97895 0.13366905 
-0.07969206 0.99479645 0.06347591 
-0.036310926 0.99909127 0.02232391 
-0.015372423 0.99986345 -0.0060769115 
-0.0059551904 0.9997273 -0.02258063 
0.0016620649 0.999852 -0.017127821 
0.0049043824 0.9999594 0.007554785 
-0.0034578207 0.9994615 0.03263316 
-0.021237774 0.99884 0.04321761 
-0.03754508 0.99859744 0.0373305 
-0.04178989 0.9989704 0.01765904 
-0.027025407 0.9996347 -0.00050667295 
-0.007876346 0.99996555 0.002630984 
-0.0060831406 0.9997118 0.023224168 
-0.023902655 0.9988489 0.04158964 
-0.050610643 0.9976726 0.045693517 
-0.069677606 0.9968499 0.03788731 
-0.07986142 0.99632627 0.03092327 
-0.09194427 0.9954826 0.023681447 
-0.092812456 0.99566925 0.005342405 
-0.063793175 0.99781084 -0.017439945 
-0.01854567 0.9994525 -0.02740116 
0.013861091 0.9997938 -0.014838267 
0.026301775 0.9995715 0.012853786 
0.030914424 0.99888575 0.035660263 
0.029688073 0.99849886 0.046030752 
0.018439243 0.99845266 0.05246327 
0.00829625 0.9985903 0.052427582 
0.011812672 0.9991239 0.04014902 
0.021422232 0.9994044 0.02705589 
-0.2845195 0.6109834 0.73874754 
-0.18041235 0.8241566 0.5368589 
-0.102054745 0.953735 0.2827977 
-0.059519444 0.98998916 0.12798065 
-0.03441677 0.9984493 0.043754417 
-0.023810001 0.9996941 -0.0066999854 
-0.018461036 0.9994018 -0.029245235 
-0.010837489 0.99972445 -0.020823093 
-0.003936131 0.9999912 0.0015215748 
-0.0012858991 0.9998057 0.019668387 
-0.0014737824 0.9995591 0.029657057 
-0.0015573261 0.99952525 0.030769652 
-0.003522742 0.99980026 0.019671336 
-0.0050970693 0.999974 0.0051035495 
-0.0067886957 0.9999567 0.0063677058 
-0.014510682 0.9995561 0.026022356 
-0.029971585 0.9984278 0.047367148 
-0.049904477 0.99726796 0.05446298 
-0.061808165 0.997084 0.044756383 
-0.06560972 0.99732167 0.032327354 
-0.07179232 0.9971678 0.02241 
-0.06722737 0.9977249 0.005067991 
-0.03600461 0.99921507 -0.016520739 
0.0045579 0.99959826 -0.027974498 
0.026858933 0.99945736 -0.01907156 
0.03287178 0.9994303 0.007648786 
0.039184846 0.9987091 0.032322153 
0.040589135 0.99827045 0.04252963 
0.026723847 0.99867135 0.044061728 
0.011574533 0.9992945 0.035730295 
0.012546112 0.99979925 0.015621052 
0.021767441 0.9997617 -0.0016393967 
-0.14977983 -0.25539848 0.95516366 
-0.077990696 0.43793043 0.8956195 
-0.04698868 0.88262624 0.46772122 
-0.03503763 0.9796804 0.19748066 
-0.02664359 0.9974802 0.065753154 
-0.025976278 0.9996605 -0.0020353904 
-0.02550463 0.9993191 -0.02666535 
-0.019966789 0.999584 -0.020813733 
-0.00966689 0.99991125 -0.009170075 
0.004816802 0.9999837 0.0030819115 
0.018690446 0.9996269 0.019923894 
0.024982385 0.999156 0.032606293 
0.016238343 0.99943113 0.02956005 
-0.0010713784 0.99985844 0.016796475 
-0.014276067 0.9997689 0.016073622 
-0.022913853 0.9991715 0.03363556 
-0.03395526 0.9979941 0.05343178 
-0.048380964 0.99717396 0.057474643 
-0.053483225 0.99767554 0.042225946 
-0.04887211 0.99851406 0.024109272 
-0.04426989 0.9989408 0.0125473915 
-0.031112768 0.9995152 -0.0012397638 
0.0004785289 0.9998238 -0.018769369 
0.033242542 0.99896586 -0.031020155 
0.045057245 0.998671 -0.025020963 
0.04533416 0.99896777 0.0028967212 
0.051091958 0.9981728 0.03226202 
0.052328013 0.99762917 0.044699322 
0.035524953 0.9984631 0.04253781 
0.015253703 0.9995238 0.026821116 
0.0110648135 0.9999387 0.00047538392 
0.016421529 0.99967206 -0.019648453 
0.073068894 -0.5747359 0.81507033 
0.08600876 0.21010506 0.9738883 
0.025220493 0.84745646 0.5302656 
-0.003442658 0.9763041 0.21637586 
-0.013946677 0.99742407 0.07036285 
-0.0264012 0.9996504 0.001424918 
-0.034482997 0.99916255 -0.022027329 
-0.030457761 0.9993004 -0.021704271 
-0.014420638 0.99972504 -0.018489461 
0.009563413 0.999939 -0.0055409097 
0.02956554 0.999352 0.020530932 
0.033232342 0.9985938 0.04130428 
0.01733198 0.9989817 0.041657012 
-0.004029517 0.9995905 0.028329602 
-0.015521431 0.9996139 0.023050848 
-0.0200951 0.9992386 0.03344169 
-0.02895022 0.998448 0.047577057 
-0.041951634 0.99790776 0.049195684 
-0.043631088 0.9984643 0.03413889 
-0.032267366 0.9993451 0.01637995 
-0.018308135 0.9998182 0.0053205127 
-0.00023491631 0.99998575 -0.005331644 
0.02843888 0.9993854 -0.020496434 
0.055079486 0.9978706 -0.0349356 
0.062269412 0.9975304 -0.032490123 
0.06021812 0.9981687 -0.0057465453 
0.06386647 0.9976428 0.025100404 
0.06281739 0.997254 0.03922321 
0.0429094 0.9983676 0.037696794 
0.017782379 0.9995832 0.022744961 
0.0066474886 0.99997693 -0.0014622594 
0.005708023 0.99979705 -0.019321565 
0.3487873 -0.2883746 0.89173293 
0.23748273 0.47775838 0.84578305 
0.08654896 0.9049399 0.41664514 
0.028255463 0.9862437 0.16286491 
0.0021802192 0.9987411 0.050113767 
-0.02563529 0.9996712 -0.00065395684 
-0.0434635 0.99887615 -0.018909678 
-0.03860221 0.9990326 -0.021065691 
-0.01708267 0.9996976 -0.017685758 
0.010571826 0.99994415 0.00024905952 
0.029780751 0.9990942 0.030396866 
0.028559145 0.99831706 0.05047181 
0.011261196 0.99876374 0.048415814 
-0.0055186315 0.9994596 0.03240315 
-0.012458199 0.9997087 0.020672506 
-0.0148789175 0.9996227 0.023089683 
-0.021700365 0.99916804 0.03453106 
-0.030756524 0.9987495 0.03941668 
-0.026913552 0.9992055 0.029393688 
-0.009755181 0.9998675 0.013029212 
0.0067048096 0.99997735 0.0007168484 
0.020570224 0.9997453 -0.0092887925 
0.042175613 0.9987969 -0.025023881 
0.06423532 0.99700063 -0.043168228 
0.06913821 0.9965357 -0.046222277 
0.06387467 0.99763936 -0.025216846 
0.06335353 0.9979875 0.0027152614 
0.05973571 0.9980358 0.018873077 
0.03893973 0.99894774 0.024233133 
0.012227429 0.9997488 0.018788306 
-0.0035090696 0.99998647 0.0038559102 
-0.009247677 0.99992424 -0.008135018 
0.5120289 0.5797345 0.6338253 
0.2926032 0.8445522 0.44845855 
0.12968817 0.96850556 0.2125515 
0.0631848 0.99483365 0.07945915 
0.023159776 0.99948955 0.02200637 
-0.019764982 0.9997984 -0.0035487956 
-0.0438741 0.9989175 -0.015457083 
-0.03607682 0.99920505 -0.016962858 
-0.011951009 0.9998934 -0.008388516 
0.014018956 0.99979997 0.014267706 
0.028303634 0.9986899 0.042633407 
0.022826793 0.9981651 0.05608452 
0.007348465 0.9987501 0.04944148 
-0.0052613583 0.9994877 0.031571664 
-0.011877807 0.99980545 0.015745925 
-0.013611931 0.9997996 0.014677867 
-0.0143179875 0.99949914 0.028223034 
-0.014283799 0.9991573 0.038480043 
-0.003784159 0.99950105 0.031361785 
0.013875522 0.99983567 0.011674205 
0.022978956 0.999718 -0.0060027493 
0.025722617 0.9995044 -0.018149495 
0.03963879 0.9986125 -0.03466876 
0.058254633 0.99685 -0.053819545 
0.05979442 0.996365 -0.060674563 
0.049174607 0.99774015 -0.045787785 
0.04481719 0.99878466 -0.020513842 
0.042565476 0.9990936 0.00040462328 
0.028059209 0.9994778 0.016027842 
0.009092627 0.99972594 0.021576822 
-0.001335168 0.99988306 0.01523622 
-0.0051376303 0.99995583 0.007879274 
0.38660455 0.88386023 0.2633023 
0.2596564 0.9490018 0.17881352 
0.15121603 0.9849333 0.08390511 
0.0902586 0.99550337 0.028749276 
0.039904706 0.9991806 0.0067654885 
-0.009155701 0.99994475 -0.0051648123 
-0.029417196 0.999444 -0.01569547 
-0.01668417 0.9997188 -0.01685773 
0.00549785 0.99998075 -0.0028784652 
0.024687752 0.9994118 0.023806306 
0.031255797 0.9982412 0.050375257 
0.022699358 0.9979575 0.05971266 
0.011091521 0.9986432 0.050879985 
0.002773911 0.99950475 0.031346947 
-0.0039276076 0.99991435 0.012487056 
-0.005510792 0.99992454 0.010981399 
-0.00284337 0.99961275 0.027680853 
0.00040086135 0.99914294 0.041392084 
0.009089766 0.9993464 0.034990985 
0.0183973 0.9997553 0.01228413 
0.016318085 0.999832 -0.008356451 
0.011553674 0.99970853 -0.021199465 
0.022768032 0.99905086 -0.03713687 
0.03948949 0.9976901 -0.055272166 
0.039076794 0.9971976 -0.06379615 
0.028025629 0.9982419 -0.052228943 
0.026830543 0.99929804 -0.026147828 
0.032302387 0.99947745 0.0012018246 
0.0292744 0.9992796 0.024151074 
0.023070907 0.9991515 0.034118082 
0.023586921 0.99929786 0.02911288 
0.02581293 0.9994353 0.021511035 
0.2747825 0.95375097 0.12187617 
0.20984478 0.97373474 0.08835134 
0.14079066 0.98884934 0.04852855 
0.088685654 0.99581635 0.022016054 
0.04213468 0.9990895 0.0067091333 
0.0058231475 0.9999619 -0.0065109683 
-0.0012747294 0.9998276 -0.018529601 
0.01200749 0.999766 -0.017998694 
0.024488678 0.99969983 0.0008043664 
0.032722898 0.9990201 0.029799495 
0.032091457 0.99807876 0.053000424 
0.024011223 0.99805206 0.057581127 
0.018137606 0.9988004 0.045486134 
0.0133052785 0.99963194 0.023642307 
0.0056183543 0.9999733 0.0046892324 
0.0027041396 0.9999791 0.005884381 
0.0052001225 0.99967897 0.024797468 
0.0070739673 0.99915445 0.040501647 
0.009353244 0.99924517 0.037703443 
0.008767324 0.99976385 0.019884586 
0.0006515615 0.9999907 0.004271649 
-0.0037366785 0.99997073 -0.006675293 
0.008853267 0.9996793 -0.023725625 
0.025288623 0.99869037 -0.04447484 
0.02696319 0.99793524 -0.058296215 
0.021472495 0.9984272 -0.051788922 
0.026545439 0.9993157 -0.025761114 
0.037003055 0.9993034 0.004846937 
0.037772827 0.998873 0.02874186 
0.035518534 0.9987287 0.035769727 
0.04144192 0.9987959 0.026254626 
0.048473943 0.99870896 0.01518741 
0.17435402 0.9812282 0.08241437 
0.13852675 0.9878578 0.07033717 
0.09391048 0.9942835 0.05080557 
0.056741104 0.9979533 0.029492104 
0.0298443 0.99951637 0.008738604 
0.01699988 0.9998267 -0.007580796 
0.021622278 0.999612 -0.01756363 
0.030005159 0.9994465 -0.014367335 
0.032413393 0.9994657 0.004218322 
0.03366927 0.99906254 0.027211627 
0.031379737 0.9986869 0.040496018 
0.025600681 0.99893063 0.03850118 
0.019821333 0.9994875 0.02513555 
0.010895189 0.99992275 0.005990243 
0.0005466601 0.9999757 -0.006967044 
0.0004743264 0.99999934 -0.0011243221 
0.008089972 0.99981654 0.01736731 
0.011999333 0.9993746 0.033261977 
0.010183406 0.99928135 0.03651243 
0.00530028 0.9995329 0.030099487 
-8.919793e-05 0.99969584 0.024663363 
0.00032360593 0.9998822 0.015343646 
0.012355725 0.99990493 -0.0061394544 
0.025688173 0.9991074 -0.03353296 
0.028224632 0.9980739 -0.055244476 
0.025891144 0.99820715 -0.053964034 
0.030515293 0.99912816 -0.028490588 
0.03503699 0.9993835 0.002253984 
0.026920969 0.9993732 0.022988878 
0.016886277 0.9995338 0.025438717 
0.020547789 0.99969465 0.013725167 
0.029891958 0.9995504 0.0023371966 
0.079262145 0.9952996 0.055644978 
0.060668517 0.99675924 0.052824013 
0.036649484 0.998404 0.04296858 
0.017984381 0.99953264 0.02472184 
0.011371459 0.99992776 0.0039201453 
0.016710177 0.9998156 -0.009459307 
0.029492607 0.99945414 -0.014892015 
0.037079424 0.9992607 -0.010155344 
0.037509806 0.9992874 0.0042009205 
0.03852777 0.99911 0.017174706 
0.037078477 0.99911827 0.019695697 
0.029264152 0.99948883 0.012872432 
0.0142945675 0.99989516 0.0023495154 
-0.005100965 0.99994487 -0.009174393 
-0.015862435 0.99977094 -0.014368731 
-0.0069267405 0.9999572 -0.006139571 
0.009029233 0.99992293 0.008528467 
0.014652641 0.99967074 0.021068512 
0.0105691245 0.9995767 0.027108014 
0.008718466 0.9995086 0.03011166 
0.01269766 0.999386 0.032656588 
0.01709098 0.9995655 0.024016919 
0.022575168 0.9997449 0.00083499786 
0.02705737 0.9992592 -0.02736808 
0.025720682 0.99849445 -0.04845003 
0.022178715 0.9987848 -0.04401116 
0.022764985 0.9996289 -0.014959386 
0.01962024 0.99967474 0.016298404 
0.0036469332 0.99941665 0.033956945 
-0.011289657 0.99937147 0.033605848 
-0.007159657 0.9997194 0.022584084 
0.0060201706 0.9998958 0.013125808 
0.012921734 0.9996841 0.021559237 
0.006441085 0.9997724 0.020338954 
-0.0011690427 0.9998918 0.0146671515 
-0.006010195 0.99998003 0.0019392787 
-0.0021336782 0.99992764 -0.01184416 
0.011680879 0.9997701 -0.017980881 
0.030292435 0.9993948 -0.01710136 
0.040361356 0.99914443 -0.009022237 
0.042863924 0.99907583 0.0031910161 
0.045949202 0.9988952 0.00985687 
0.0442909 0.999002 0.0057867197 
0.030985301 0.9995165 -0.0025873368 
0.0045546037 0.99996024 -0.0076780855 
-0.022375327 0.99968404 -0.01145672 
-0.027291281 0.9995689 -0.010836719 
-0.008261144 0.9999642 -0.0018406516 
0.010284664 0.99992365 0.0068608616 
0.011908564 0.9998773 0.010189642 
0.0055072852 0.9999296 0.010507702 
0.009066662 0.9998686 0.0134480195 
0.01978957 0.99967045 0.016356442 
0.021367505 0.99973565 0.008496347 
0.017147506 0.9998171 -0.008477957 
0.016400283 0.9995078 -0.02674397 
0.017031377 0.999201 -0.03615682 
0.017375434 0.99966294 -0.019290451 
0.018690364 0.9996675 0.017764028 
0.013049501 0.99871844 0.048899293 
-0.0036875554 0.9981909 0.060012363 
-0.014541494 0.9985566 0.051703442 
-0.0030045863 0.9993463 0.036027636 
0.01642263 0.9995349 0.025698302 
-0.01292351 0.99991643 0.00024924177 
-0.0129419835 0.99990624 -0.0044718217 
-0.0110845845 0.999859 -0.012619168 
-0.008494243 0.99968123 -0.023774367 
-0.0017836951 0.99949723 -0.031659547 
0.012544665 0.99944544 -0.030847028 
0.029939327 0.99928105 -0.023264032 
0.037930436 0.99921626 -0.0113231195 
0.04157999 0.9991348 0.00094655936 
0.046548553 0.99889547 0.0064118966 
0.042925604 0.9990775 0.0012474308 
0.023144342 0.99972177 -0.004560428 
-0.010378903 0.9999393 -0.0037021732 
-0.035132788 0.9993803 -0.0022294968 
-0.028215382 0.9995966 0.0032457937 
-0.0027913682 0.99990165 0.013743391 
0.011589067 0.9998024 0.016155722 
0.0061986693 0.99995136 0.0076808515 
-0.0040319143 0.9999882 -0.0027180156 
-0.0007552522 0.9999686 -0.007885693 
0.007378905 0.99990875 -0.011325756 
0.002738468 0.999829 -0.018293863 
-0.0024939808 0.99966604 -0.025721729 
0.0059679816 0.9994423 -0.032857023 
0.019286178 0.9993547 -0.030301305 
0.028244074 0.9996009 -0.00054894044 
0.030635636 0.99858624 0.043440856 
0.020569267 0.9972104 0.07175289 
0.0016551154 0.9973482 0.072759904 
-0.006359192 0.9985645 0.053185612 
0.008238182 0.9994843 0.031036638 
0.028332885 0.99940735 0.019551642 
-0.011354672 0.9999256 -0.0044662743 
-0.0095157195 0.9998575 -0.013951398 
-0.004350762 0.9995827 -0.028557952 
0.0015558152 0.99908066 -0.04284191 
0.007991763 0.9987851 -0.04862668 
0.018058557 0.99886006 -0.044188302 
0.028037407 0.99904877 -0.03339941 
0.030638244 0.99933416 -0.019812295 
0.03508106 0.99937034 -0.0053309114 
0.040712398 0.99916345 0.0038743322 
0.03345001 0.999437 0.0026345255 
0.007985519 0.9999653 0.002384515 
-0.026506225 0.9996218 0.0073362105 
-0.041654743 0.99907494 0.010690593 
-0.023538573 0.999522 0.0200455 
0.0022467342 0.9994658 0.032605805 
0.010104475 0.9994621 0.031198232 
-0.0011216248 0.99989146 0.014694098 
-0.01596534 0.99986345 -0.0042838706 
-0.01769424 0.9996692 -0.018664625 
-0.015833244 0.9994407 -0.029456876 
-0.022452194 0.9991168 -0.03552105 
-0.019183232 0.99908483 -0.038229663 
0.0035869346 0.99905336 -0.043354735 
0.027701473 0.9989434 -0.03667154 
0.041703954 0.9991299 0.00060311 
0.043392863 0.9978377 0.0493656 
0.02919131 0.9965456 0.07774883 
0.008539 0.9970364 0.076456346 
-0.00014522708 0.99843675 0.05589326 
0.008506745 0.9993549 0.03489131 
0.020347105 0.9994815 0.024954759 
0.012898871 0.999891 -0.0071993936 
0.011992955 0.9997739 -0.017560951 
0.0129672205 0.9992837 -0.03555326 
0.0163452 0.9984777 -0.052680675 
0.019973848 0.9980742 -0.058729284 
0.024773242 0.9982424 -0.053837784 
0.026728043 0.9987535 -0.042155594 
0.023894757 0.9993635 -0.026487919 
0.025994118 0.9996366 -0.0071513318 
0.027169071 0.99960715 0.006889883 
0.014919118 0.9998368 0.010191803 
-0.012681938 0.99982154 0.014008802 
-0.04077035 0.99902266 0.017079627 
-0.04183471 0.9989931 0.016208926 
-0.01623543 0.99955493 0.025030952 
0.005275665 0.9992604 0.038089853 
0.0064655673 0.99932384 0.036194965 
-0.0079956185 0.9997937 0.018674446 
-0.023888119 0.9997131 -0.0017506017 
-0.02635259 0.99946135 -0.01956101 
-0.025549833 0.99915785 -0.032108814 
-0.031142294 0.99892056 -0.034466587 
-0.02419418 0.9991276 -0.03403807 
0.0018008933 0.9991939 -0.040104978 
0.027917814 0.9989848 -0.035356984 
0.044897515 0.99899143 -0.0007228153 
0.05063245 0.9977101 0.04484352 
0.04200596 0.9965007 0.072263084 
0.02714856 0.99679804 0.07521034 
0.019041494 0.9977534 0.06423168 
0.020252656 0.99851763 0.05052015 
0.022455547 0.99885863 0.042158 
0.04906017 0.99879533 -0.0010185138 
0.042629004 0.9990545 -0.008540854 
0.03345698 0.9991053 -0.025870904 
0.027854191 0.9986134 -0.04466915 
0.026144402 0.9982411 -0.053208053 
0.026672512 0.99838233 -0.050211728 
0.02141716 0.99900424 -0.03913802 
0.009951285 0.9997052 -0.022150736 
0.0024638572 0.9999967 -0.0007130434 
-0.0037416345 0.99991757 0.012282192 
-0.015792092 0.99977523 0.014149501 
-0.035656486 0.99924904 0.01516822 
-0.047229894 0.9988232 0.011030972 
-0.031545497 0.9994889 0.0051945103 
-0.003933998 0.9999039 0.0132894395 
0.008352562 0.99960136 0.026970275 
0.0022296824 0.9996256 0.027273476 
-0.011855508 0.999827 0.0143327555 
-0.021326523 0.9997722 -0.00084919995 
-0.015817514 0.9997629 -0.014966364 
-0.009988745 0.9996935 -0.022652911 
-0.015667133 0.9997164 -0.017939087 
-0.0145442 0.9998129 -0.012756633 
0.0029213787 0.99982035 -0.018732274 
0.024079459 0.99951684 -0.019654512 
0.041663468 0.9991267 0.00317865 
0.052776515 0.99797237 0.035579577 
0.054225583 0.9971202 0.053018857 
0.047404036 0.99749357 0.05253165 
0.038475182 0.9982025 0.04595068 
0.032746337 0.9987884 0.03673557 
0.028527038 0.9991897 0.028395563 
0.07068695 0.99722564 0.023333052 
0.059554495 0.9980525 0.018565383 
0.04105788 0.9991522 0.0030447475 
0.026717605 0.999493 -0.01732252 
0.020929556 0.9992965 -0.031123223 
0.018117225 0.99928033 -0.033324078 
0.004966189 0.99965084 -0.025955673 
-0.016847216 0.9997955 -0.011193968 
-0.033347968 0.9994262 0.005930061 
-0.040314544 0.9991342 0.010283439 
-0.04293865 0.99906766 0.004484535 
-0.04605653 0.9989377 -0.0015474892 
-0.03748415 0.99925333 -0.00937141 
-0.0123149 0.9998627 -0.011097698 
0.0070935055 0.9999744 0.0009003466 
0.00689719 0.99987173 0.014461059 
-0.0043914756 0.99986655 0.015735503 
-0.014645486 0.9998609 0.007990394 
-0.01387095 0.9999035 -0.0007561751 
0.0029837159 0.99994093 -0.010458768 
0.016701572 0.9997609 -0.014115826 
0.011632211 0.9999198 -0.0050327666 
0.0039331126 0.9999805 0.004861567 
0.008535668 0.9999545 0.0042727143 
0.021343652 0.99976754 0.003048842 
0.03481649 0.9992952 0.014037806 
0.04400427 0.9986585 0.027295524 
0.046032596 0.99863476 0.024693163 
0.03665297 0.99928695 0.0090619195 
0.018986799 0.99981505 -0.0030695486 
0.003826296 0.99991435 -0.012518243 
-0.0051196218 0.99973524 -0.022432989 
0.06609565 0.9965601 0.04999415 
0.053924493 0.9974087 0.04762415 
0.032649785 0.99884444 0.03526869 
0.015019923 0.99978364 0.0143906055 
0.0073821624 0.9999588 -0.0052874875 
0.00047845364 0.99990493 -0.0137851415 
-0.019559057 0.99973786 -0.011905128 
-0.04694719 0.9988945 -0.0023877514 
-0.06448944 0.9978973 0.006480152 
-0.063601784 0.9979742 0.0014971211 
-0.05269921 0.9985584 -0.010199204 
-0.039224695 0.9990526 -0.018852612 
-0.019020244 0.9996031 -0.02078207 
0.001807948 0.99991494 -0.0129188765 
0.008494467 0.99996364 -0.0008271726 
0.0007626248 0.9999817 0.0060152663 
-0.011512058 0.99992555 0.0040687295 
-0.018159138 0.99983513 -0.0004082722 
-0.009364044 0.99994797 -0.004044966 
0.016992202 0.99979985 -0.010566891 
0.03903726 0.99914265 -0.013789618 
0.036390506 0.9993175 -0.0063507906 
0.020594722 0.9997713 0.005760808 
0.012138095 0.99982345 0.014341634 
0.016594136 0.999687 0.018722417 
0.02420837 0.9994919 0.020739753 
0.023891369 0.9996194 0.013793397 
0.011264532 0.99988306 -0.010347243 
-0.018227769 0.9989464 -0.04211663 
-0.057914305 0.9963312 -0.06300886 
-0.09102992 0.9927575 -0.07839845 
-0.10798876 0.9894852 -0.09621605 
0.056158356 0.9968357 0.056257386 
0.04537696 0.9973591 0.056709167 
0.025066897 0.99845576 0.049575493 
0.006016973 0.9994914 0.031317174 
-0.0048069414 0.99993813 0.010035833 
-0.016640762 0.99986 -0.0018114186 
-0.03938636 0.99921393 -0.0045059063 
-0.06587313 0.9978279 -0.0004672558 
-0.0779633 0.99695194 0.0029408347 
-0.06673051 0.9977673 -0.002722061 
-0.04488931 0.99892163 -0.011858084 
-0.02290326 0.9996117 -0.015871082 
-0.0051477337 0.99994004 -0.009668398 
0.004042422 0.99999183 0.00026006912 
0.0048051565 0.99998355 0.0031333517 
-0.0019456407 0.99999565 -0.0021981932 
-0.012519901 0.99986154 -0.01096138 
-0.017154347 0.9997382 -0.0151426075 
-0.005171831 0.99988544 -0.014230525 
0.023916788 0.99960405 -0.014820571 
0.04845013 0.998698 -0.015969867 
0.047226995 0.9988048 -0.012598002 
0.027228553 0.99962074 -0.0041234572 
0.00994014 0.99993324 0.0058953864 
0.0075117466 0.9998905 0.012746913 
0.00896189 0.9999128 0.009705236 
-0.004338329 0.9999257 -0.011400019 
-0.04104608 0.99789435 -0.05022212 
-0.10445713 0.99011815 -0.093567304 
-0.18495072 0.973938 -0.13129441 
-0.26175967 0.949062 -0.17539468 
-0.30627844 0.92527026 -0.22375989 
0.05700597 0.9976606 0.037733268 
0.047028195 0.9980828 0.040239885 
0.026272926 0.9989368 0.037884142 
0.0036097383 0.9996968 0.024355996 
-0.012996046 0.99989176 0.0069095585 
-0.028414056 0.99959046 -0.003412185 
-0.04877548 0.9987854 -0.006990472 
-0.06907383 0.9975978 -0.0052315695 
-0.07242565 0.9973737 -0.00061444804 
-0.05326699 0.99857926 0.0014967798 
-0.027066147 0.9996334 0.0008006837 
-0.0073156455 0.9999669 0.0035743238 
0.0012268221 0.99992657 0.012055584 
0.005375438 0.9998623 0.01570313 
0.01047169 0.99992156 0.0068816156 
0.007971492 0.99991655 -0.01016886 
-0.0021877433 0.999648 -0.026442628 
-0.008201173 0.99948585 -0.030996742 
0.0005299422 0.9997339 -0.023060225 
0.024258807 0.99960816 -0.013965838 
0.044737276 0.9989313 -0.011621565 
0.044902533 0.9988984 -0.013632941 
0.027984176 0.99949044 -0.015356638 
0.009167593 0.9998554 -0.014330505 
0.0020262757 0.9999551 -0.00925584 
-0.0020527868 0.9999213 -0.012374272 
-0.025990803 0.9988137 -0.04118053 
-0.084807634 0.9921672 -0.09171711 
-0.18674421 0.97053623 -0.1522694 
-0.33102167 0.9142621 -0.23355834 
-0.49683493 0.79150975 -0.35590377 
-0.603643 0.6408925 -0.4742067 
0.05869466 0.9982224 0.01034017 
0.048881788 0.99873656 0.011660814 
0.026637485 0.99960095 0.00940524 
-0.000501199 0.999999 -0.0013662019 
-0.022743588 0.99965614 -0.013054391 
-0.037822504 0.9991336 -0.017366871 
-0.050711088 0.9985724 -0.016782796 
-0.06157122 0.99802375 -0.012550437 
-0.057683334 0.99833065 -0.0029208958 
-0.036131784 0.9993255 0.0065603126 
-0.011184624 0.99986845 0.011752788 
0.003689664 0.99982905 0.018124703 
0.009326819 0.9996212 0.02589606 
0.018050656 0.99951565 0.025352282 
0.028907644 0.99952394 0.010785146 
0.02803018 0.9995138 -0.013657981 
0.016922006 0.99919873 -0.036273133 
0.0068840575 0.9991299 -0.041134603 
0.007657179 0.9996493 -0.025353143 
0.021089675 0.9997531 -0.0070079146 
0.03448281 0.99940395 -0.0016431789 
0.038042158 0.9992423 -0.008231643 
0.030683171 0.99928826 -0.02194751 
0.016609833 0.9993093 -0.033240996 
0.00685289 0.9994546 -0.032303426 
-0.0023637032 0.9993516 -0.035927244 
-0.032214247 0.99700063 -0.07036979 
-0.102671444 0.9859169 -0.13200918 
-0.22984193 0.94861245 -0.21750236 
-0.4267589 0.8272742 -0.36536878 
-0.652557 0.47626072 -0.5893599 
-0.70668465 -0.004815292 -0.7075124 
0.04022142 0.99918944 -0.001663383 
0.03274802 0.999446 -0.005953365 
0.013078542 0.99981153 -0.014351292 
-0.013862119 0.9995592 -0.02625491 
-0.03664965 0.998761 -0.03366444 
-0.047227066 0.9983571 -0.032444816 
-0.051514555 0.9982653 -0.028509438 
-0.05551431 0.99821216 -0.022150217 
-0.04942802 0.9987255 -0.010216442 
-0.028668158 0.999589 9.062733e-05 
-0.004657249 0.9999754 0.005247212 
0.010504838 0.99986464 0.012667937 
0.020628093 0.9995431 0.02209561 
0.035181284 0.9991174 0.02295409 
0.04804281 0.99881285 0.008044813 
0.048067655 0.9986767 -0.018286774 
0.036856525 0.998461 -0.04144086 
0.021338508 0.99886924 -0.042485714 
0.011209795 0.9997486 -0.019421443 
0.012244141 0.99991655 0.0041386434 
0.021003408 0.99971867 0.011020848 
0.034057733 0.9994153 0.0030232808 
0.040992483 0.9990115 -0.017198745 