# OOMMF OVF 2.0
# Segment count: 1
# Begin: Segment
# Begin: Header
# Title: m
# meshtype: rectangular
# meshunit: m
# xmin: 0
# ymin: 0
# zmin: 0
# xmax: 1.6e-07
# ymax: 1.6e-07
# zmax: 5e-09
# valuedim: 3
# valuelabels: m_x m_y m_z
# valueunits: 1 1 1
# Desc: Total simulation time:  2.6245493965668647e-11  s
# xbase: 2.5e-09
# ybase: 2.5e-09
# zbase: 2.5e-09
# xnodes: 32
# ynodes: 32
# znodes: 1
# xstepsize: 5e-09
# ystepsize: 5e-09
# zstepsize: 5e-09
# End: Header
# Begin: Data Text
0.00402444 -0.7095286 -0.7046651 
-0.047646176 0.054329474 -0.99738574 
-0.066501506 0.82548237 -0.5604967 
-0.060294345 0.9648835 -0.25566462 
-0.050360285 0.98717755 -0.15147436 
-0.021186238 0.9916492 -0.12721205 
0.020467825 0.9942436 -0.105169564 
0.047949366 0.9972141 -0.057140753 
0.039357316 0.99920857 -0.0057765115 
0.009234919 0.9998767 0.012708614 
-0.025637979 0.9996708 -0.0010410872 
-0.058642082 0.9969567 -0.051366907 
-0.058150686 0.99079543 -0.122241944 
-0.027922167 0.9887417 -0.14700437 
-0.01964627 0.9939172 -0.108363464 
-0.055237148 0.9964699 -0.063219726 
-0.10464856 0.9931805 -0.05139294 
-0.13852625 0.98861337 -0.05877179 
-0.14488603 0.9874716 -0.06251311 
-0.1220636 0.99142516 -0.046653282 
-0.08641331 0.9962269 -0.008052035 
-0.058001183 0.99790144 0.028784864 
-0.041602325 0.9974069 0.05872562 
-0.042315595 0.9939241 0.10160886 
-0.04932614 0.9877028 0.14835864 
-0.03748755 0.985014 0.16835111 
-0.009810873 0.98873585 0.14934921 
-0.0012112601 0.9936858 0.112193026 
-0.036676683 0.9951637 0.09112718 
-0.08675306 0.99225193 0.088938914 
-0.10373741 0.9900521 0.0950553 
-0.095835246 0.99003583 0.10317294 
-0.1567625 -0.26499924 -0.95142055 
-0.16688608 0.5220478 -0.8364301 
-0.10139896 0.9199166 -0.3787766 
-0.060810115 0.9871295 -0.14791024 
-0.040384877 0.99650675 -0.07309817 
-0.020852955 0.99767244 -0.064923175 
0.003575389 0.9984473 -0.05559151 
0.020320993 0.99965423 -0.016688004 
0.012315589 0.99960846 0.025123527 
-0.015303076 0.999417 0.030519366 
-0.047549684 0.9988688 -0.000437582 
-0.07012884 0.995926 -0.056688145 
-0.062209792 0.991752 -0.112062044 
-0.03889384 0.99180776 -0.121674776 
-0.040078577 0.99555814 -0.0851923 
-0.07182667 0.99621737 -0.048908405 
-0.10617882 0.99355644 -0.03964387 
-0.124231964 0.9912199 -0.04527501 
-0.12140894 0.9912653 -0.051507264 
-0.095596604 0.99426734 -0.047894694 
-0.058266953 0.9979334 -0.027092217 
-0.027616728 0.999614 -0.0030292904 
-0.011201124 0.999708 0.021415949 
-0.014656266 0.9980744 0.06027273 
-0.029052157 0.9943062 0.10252391 
-0.030480264 0.99209696 0.12171522 
-0.017509993 0.9940113 0.10786528 
-0.017034076 0.9967819 0.078330785 
-0.04885168 0.9970115 0.05984807 
-0.09015086 0.994332 0.05636277 
-0.102887206 0.99283004 0.060850352 
-0.09261109 0.9933675 0.0681498 
-0.24153286 0.6880559 -0.6842814 
-0.17298593 0.87849826 -0.44532752 
-0.09697135 0.97698915 -0.18997054 
-0.049749915 0.9973631 -0.05283731 
-0.024221843 0.9996972 -0.0043458217 
-0.013599149 0.9999058 -0.0018820487 
-0.0069799065 0.99996996 0.0033929255 
-0.0046398384 0.99946165 0.03247864 
-0.018455254 0.9982123 0.056847885 
-0.048428867 0.99799955 0.040639218 
-0.07641904 0.9970258 -0.009984619 
-0.082038835 0.9942971 -0.06813893 
-0.061486684 0.9928133 -0.102670595 
-0.043541186 0.9946844 -0.09331182 
-0.05310311 0.9969448 -0.057281286 
-0.08056665 0.99629307 -0.030152492 
-0.101695925 0.9944897 -0.025459781 
-0.10693448 0.99375683 -0.031820428 
-0.09900336 0.9942071 -0.041841473 
-0.0748131 0.9958592 -0.051648356 
-0.0381285 0.99797416 -0.05093015 
-0.004506042 0.9991638 -0.0406384 
0.014281349 0.9996888 -0.020455591 
0.0107177105 0.9998185 0.01574862 
-0.008536217 0.99852645 0.053591162 
-0.022328539 0.9972079 0.07125985 
-0.025540713 0.99762803 0.06392226 
-0.0345216 0.9983978 0.04483346 
-0.0618413 0.9976085 0.030871628 
-0.09250537 0.99532944 0.02760526 
-0.101069815 0.9943497 0.03246046 
-0.09247363 0.9949108 0.040014554 
-0.17635131 0.9183675 -0.354262 
-0.13437247 0.96132475 -0.24041386 
-0.08538423 0.9902554 -0.11001725 
-0.045228805 0.99864644 -0.025686193 
-0.01728851 0.99980086 0.009964758 
-0.0055950144 0.999843 0.016815681 
-0.0016498809 0.99966085 0.025988828 
-0.0052927155 0.99885064 0.047638603 
-0.02596036 0.9979833 0.057927724 
-0.060654256 0.99762 0.032794878 
-0.085743465 0.9961472 -0.018405879 
-0.0790871 0.9945695 -0.06765162 
-0.050672177 0.99511707 -0.084701516 
-0.037215356 0.9973293 -0.062843636 
-0.05230843 0.99822605 -0.028437436 
-0.0779544 0.9969108 -0.009589102 
-0.09261453 0.9956369 -0.0113937985 
-0.09108224 0.99561936 -0.021122519 
-0.08323012 0.9959604 -0.0336989 
-0.067732684 0.9963149 -0.052622348 
-0.03841253 0.9969031 -0.06862022 
-0.004309496 0.9975763 -0.06944681 
0.01847771 0.99859476 -0.049671065 
0.018505597 0.9997568 -0.012000863 
0.0007245994 0.9997252 0.023429738 
-0.017633941 0.9990784 0.039133176 
-0.030528814 0.9988048 0.03817044 
-0.045013692 0.9985329 0.030096738 
-0.06609563 0.99757844 0.02164827 
-0.08562783 0.9961373 0.019452944 
-0.090155415 0.9955794 0.026335621 
-0.083932735 0.99582255 0.035954397 
-0.19939616 0.9555307 -0.21726115 
-0.1565199 0.9751228 -0.15696223 
-0.10621119 0.99088955 -0.082808055 
-0.0609626 0.99768835 -0.030027768 
-0.025605366 0.99965566 -0.005749112 
-0.0018416377 0.9999909 0.0038557558 
0.01107601 0.99978924 0.0172909 
0.0064550866 0.9994386 0.032876253 
-0.018535698 0.9992257 0.034706336 
-0.052437793 0.99850833 0.015213441 
-0.073161006 0.9971484 -0.018510062 
-0.06446284 0.9966367 -0.050595958 
-0.03874789 0.99766654 -0.056214824 
-0.028694268 0.99908066 -0.031852476 
-0.04371701 0.99904114 -0.0024153797 
-0.06743888 0.9976715 0.010177234 
-0.08122992 0.99669206 0.0025615832 
-0.07928595 0.9967727 -0.012566817 
-0.07510327 0.996746 -0.029272607 
-0.069825456 0.9960109 -0.055557884 
-0.048974443 0.9953462 -0.08299143 
-0.015887575 0.99588716 -0.08919821 
0.009439024 0.99782026 -0.06531188 
0.014156454 0.9996309 -0.0231906 
0.00246947 0.9999294 0.011620303 
-0.015117267 0.9995238 0.026903503 
-0.0341163 0.9988824 0.032711934 
-0.052298397 0.9980524 0.0340057 
-0.06564704 0.9974566 0.027763922 
-0.07205744 0.99713904 0.022836234 
-0.070632055 0.9970579 0.029778745 
-0.065381594 0.99700266 0.041364886 
-0.3799179 0.9250152 -0.0030820982 
-0.28155565 0.95954394 -0.0013535296 
-0.17387998 0.98475796 -0.0041762106 
-0.0947969 0.9954823 -0.0053352155 
-0.04005187 0.9991622 -0.008415843 
0.00014269183 0.9999852 -0.0054477863 
0.02071884 0.999773 0.0049782633 
0.014920717 0.99982756 0.011058402 
-0.0098061105 0.9999153 0.008567451 
-0.037732266 0.999286 0.0019352955 
-0.054292925 0.99849105 -0.008241575 
-0.051038135 0.9984856 -0.020533266 
-0.033640996 0.99924344 -0.019518226 
-0.0238079 0.9997152 -0.0016550052 
-0.033395287 0.99931073 0.016211322 
-0.055082474 0.9982926 0.019440249 
-0.073035285 0.99731684 0.005008633 
-0.076245755 0.9969797 -0.014766472 
-0.0761618 0.9965775 -0.032138083 
-0.07535919 0.9955137 -0.05721436 
-0.056827143 0.9948288 -0.08418115 
-0.023660846 0.9958195 -0.088225745 
0.0023786817 0.99817204 -0.0603896 
0.011287193 0.9997794 -0.01771482 
0.006856543 0.99987763 0.014065489 
-0.007957074 0.9995682 0.028285326 
-0.031043405 0.99879515 0.03800682 
-0.05113008 0.99771 0.044279777 
-0.0559066 0.9977514 0.036969204 
-0.04929759 0.99842346 0.026838345 
-0.041223794 0.9986579 0.031353757 
-0.035346672 0.99844325 0.043149047 
-0.6922725 0.5484288 0.4690253 
-0.5078476 0.7923787 0.33797455 
-0.28352332 0.94493973 0.16341244 
-0.14083919 0.98813426 0.061278865 
-0.0575776 0.9982557 0.0130538475 
-0.0052328752 0.99998426 -0.0020608609 
0.018583737 0.9998069 -0.0064022522 
0.015844602 0.9998065 -0.011659748 
-0.0015883324 0.99995077 -0.009802272 
-0.02164181 0.9997639 0.0019619132 
-0.038264535 0.99919015 0.012449652 
-0.045013964 0.99891603 0.011857128 
-0.03525407 0.99932545 0.010283555 
-0.021895355 0.999632 0.016016722 
-0.024738142 0.999492 0.020097759 
-0.046675015 0.99882734 0.012866384 
-0.0712452 0.9974373 -0.0065584574 
-0.079656266 0.99651176 -0.024883876 
-0.07928695 0.9962778 -0.033825368 
-0.07499821 0.99614245 -0.045558434 
-0.05442816 0.9966378 -0.06124223 
-0.022760944 0.99789095 -0.060791906 
0.0027964904 0.99938816 -0.034866117 
0.016931575 0.99985564 0.0014496081 
0.020158239 0.9994577 0.026040498 
0.007255759 0.99934775 0.035376076 
-0.020689482 0.99881744 0.04399777 
-0.04302905 0.9977527 0.051360853 
-0.041119132 0.9982612 0.04223544 
-0.02394752 0.9993311 0.027639095 
-0.008899484 0.99954295 0.028889922 
-0.00072878 0.9992311 0.039201964 
-0.6531413 -0.29409122 0.69779426 
-0.6401961 0.3793206 0.6680307 
-0.36400944 0.8697169 0.33330142 
-0.17090654 0.9772008 0.12597427 
-0.06897657 0.99695426 0.036393452 
-0.012309299 0.99992365 0.0011658458 
0.013278925 0.9997333 -0.018895127 
0.016326481 0.99948496 -0.027626801 
0.0069568073 0.99989265 -0.012894471 
-0.008848528 0.9998582 0.014333067 
-0.029742688 0.99902815 0.032530513 
-0.045408744 0.9984521 0.032114584 
-0.040119562 0.9989037 0.024123332 
-0.0242842 0.99952227 0.019121958 
-0.02365088 0.99964166 0.012542213 
-0.045854434 0.9989481 -0.00043285653 
-0.07152633 0.9972726 -0.018207446 
-0.07780555 0.9965274 -0.02965694 
-0.070842944 0.9970725 -0.028772518 
-0.05922167 0.9978744 -0.027195178 
-0.038051143 0.9987727 -0.031707376 
-0.011845414 0.99953437 -0.028121449 
0.010622486 0.9999253 -0.006048291 
0.026929371 0.99936444 0.023356177 
0.033509955 0.99861294 0.040613253 
0.019663006 0.99891275 0.04227048 
-0.013268148 0.9988839 0.045330178 
-0.038478393 0.9979867 0.050419725 
-0.034381848 0.9986069 0.04002764 
-0.012893105 0.9996471 0.023229916 
0.006066368 0.9997667 0.020730387 
0.016706297 0.99947375 0.027804684 
-0.42846394 -0.58468634 0.68888366 
-0.5565746 0.17047027 0.8131203 
-0.3366049 0.8432702 0.41903764 
-0.15632491 0.97505546 0.15757377 
-0.06441506 0.99681246 0.047070824 
-0.013495654 0.99990475 -0.0029207089 
0.011758644 0.99940395 -0.032458894 
0.018441364 0.99910456 -0.03807865 
0.013087224 0.99984616 -0.011675743 
-0.0032184944 0.99973315 0.022874571 
-0.029128062 0.99877304 0.040050626 
-0.04842119 0.9981473 0.036843166 
-0.044326458 0.9987003 0.02516122 
-0.029420434 0.9994585 0.014733941 
-0.028858311 0.9995693 0.0053462605 
-0.048565343 0.9988085 -0.0047989753 
-0.067865275 0.99755645 -0.016600404 
-0.06617402 0.99753547 -0.023323921 
-0.051527176 0.9984975 -0.018651245 
-0.035806704 0.9993013 -0.010718507 
-0.017916145 0.9997914 -0.009809694 
0.0029242267 0.9999773 -0.0060875597 
0.023491602 0.9996423 0.012785379 
0.040257804 0.9984652 0.03803504 
0.0471614 0.99762565 0.05018802 
0.03135894 0.9984451 0.046086535 
-0.004978222 0.9989468 0.04561373 
-0.033426322 0.99821734 0.049447447 
-0.032037556 0.99876696 0.037924632 
-0.0124455 0.9997739 0.017243002 
0.0065566315 0.9999512 0.0073989574 
0.018668612 0.99979156 0.008270718 
-0.24788205 -0.32070786 0.9141668 
-0.2936106 0.46138018 0.83721036 
-0.1686268 0.90474385 0.39115676 
-0.08247677 0.98511523 0.15081689 
-0.037216444 0.9983372 0.044021618 
-0.0044432017 0.9999048 -0.0130635 
0.015126411 0.9988787 -0.04486156 
0.019494861 0.9987837 -0.04528811 
0.012701011 0.9998315 -0.013263235 
-0.00686082 0.9997317 0.022122163 
-0.03460568 0.998709 0.037184756 
-0.0517672 0.9980692 0.034323566 
-0.046689067 0.99865425 0.02258024 
-0.032490045 0.99941427 0.010751092 
-0.028833238 0.9995734 0.004646837 
-0.041306775 0.99914503 0.0017200448 
-0.054150134 0.99852043 -0.004978626 
-0.050963197 0.99864733 -0.0103052715 
-0.037640315 0.9992778 -0.005220407 
-0.023612536 0.99971175 0.004351422 
-0.006607121 0.99996245 0.0056248857 
0.016286464 0.9998499 0.0059161116 
0.038181804 0.99907357 0.019854087 
0.054312076 0.997684 0.04095042 
0.061906252 0.9968347 0.04988358 
0.049257 0.9978071 0.044212386 
0.015850361 0.99892086 0.043656178 
-0.014299408 0.99875367 0.04781996 
-0.01936988 0.99915344 0.036295667 
-0.0076266634 0.99988335 0.013234057 
0.006165702 0.99997944 -0.0017744481 
0.016972005 0.99984056 -0.005567159 
0.024496062 0.4744886 0.8799208 
-0.0061175977 0.8008004 0.59890026 
-0.004628793 0.9558938 0.29367602 
-0.0080463365 0.99161935 0.1289439 
-0.0060719135 0.9993158 0.036482926 
0.0107775405 0.9996975 -0.022108424 
0.022871101 0.9985044 -0.049657453 
0.02028195 0.99886155 -0.043178402 
0.0076660276 0.999921 -0.00996287 
-0.016696818 0.9996235 0.02177909 
-0.04392226 0.9984338 0.034653034 
-0.056302637 0.99786013 0.03324317 
-0.048280925 0.9985808 0.022483405 
-0.030606426 0.9994675 0.011316565 
-0.019145628 0.9997762 0.009005364 
-0.024759911 0.99965036 0.009282034 
-0.038854767 0.9992405 0.0029499063 
-0.044176564 0.9990226 -0.0015100419 
-0.038287025 0.9992502 0.005767955 
-0.025164587 0.9995348 0.017237902 
-0.0025692172 0.99984473 0.017438201 
0.026870318 0.99956876 0.01185084 
0.049491916 0.99861974 0.017583683 
0.06464362 0.9974232 0.031117212 
0.075659946 0.9964986 0.035583127 
0.070662834 0.9970508 0.02993991 
0.042505674 0.99860835 0.031220187 
0.009087616 0.9992293 0.038187698 
-0.0066241478 0.99948263 0.03147595 
-0.0075481506 0.9998755 0.013857331 
-0.0028426978 0.9999925 0.0026619534 
0.0042606667 0.99999076 0.0004939359 
0.08857798 0.8440051 0.5289702 
0.06870344 0.926452 0.37009013 
0.044201028 0.97588 0.21378621 
0.01855776 0.99381536 0.10948384 
0.011369595 0.99936867 0.033660296 
0.023753915 0.99957645 -0.016811086 
0.02864344 0.9990058 -0.03416109 
0.017730726 0.99961317 -0.021428606 
-0.0016613659 0.9999739 0.0070338445 
-0.029623436 0.99916595 0.028105374 
-0.053494804 0.99797297 0.034473255 
-0.059708044 0.9976986 0.03213388 
-0.049377948 0.9985258 0.022542281 
-0.030299315 0.999452 0.013328253 
-0.014581731 0.9998148 0.012565689 
-0.016937036 0.99978375 0.01206604 
-0.03357089 0.9994182 0.0060238545 
-0.04493296 0.9989805 0.0043751993 
-0.04156762 0.99904746 0.0132783055 
-0.025102895 0.9994116 0.02337327 
0.0032413846 0.99981344 0.01904117 
0.034223378 0.9993946 0.0062679853 
0.053380333 0.9985647 0.0043798466 
0.06764714 0.99764436 0.011383746 
0.08296076 0.99647003 0.012846977 
0.08343014 0.99648005 0.008183247 
0.05548579 0.99839306 0.011515529 
0.014732483 0.9996457 0.022168027 
-0.012005687 0.9996531 0.023441799 
-0.022375694 0.9995904 0.017848073 
-0.023359139 0.999545 0.019088015 
-0.01875127 0.9995047 0.025277408 
0.046448074 0.9489678 0.31193388 
0.03912913 0.9715465 0.23359463 
0.024709262 0.98845714 0.14947237 
0.011994534 0.99649113 0.08283386 
0.012921892 0.9994565 0.030327741 
0.024030192 0.9997084 -0.0023882473 
0.024533248 0.99966705 -0.0079983855 
0.012777592 0.99989885 0.0062466445 
-0.004662962 0.99971205 0.023542767 
-0.028798494 0.99910724 0.030910661 
-0.047305208 0.9983959 0.031111123 
-0.051038314 0.9982872 0.028597055 
-0.043828897 0.9988088 0.02144785 
-0.028338185 0.99948883 0.014803435 
-0.012052818 0.9998238 0.014389633 
-0.01218115 0.9998339 0.013567905 
-0.029191239 0.99951905 0.010472326 
-0.04267352 0.9990349 0.010401806 
-0.04025773 0.9990751 0.015107968 
-0.024555584 0.9995356 0.018048173 
0.00038483037 0.9999694 0.007824115 
0.025078535 0.99965876 -0.0073069218 
0.04090349 0.9991147 -0.009837585 
0.05818936 0.9983008 -0.003087123 
0.077628285 0.996982 0.00092869496 
0.07887204 0.99688435 0.0009653665 
0.04803056 0.99882203 0.0069066696 
0.0033269047 0.9998228 0.018525856 
-0.024543151 0.99942 0.023607336 
-0.032052003 0.99914575 0.02608784 
-0.030230306 0.9988617 0.03690009 
-0.025410261 0.9984228 0.05006363 
0.00043745645 0.9843708 0.17610757 
-0.000810685 0.99125344 0.13196956 
-0.0033090678 0.99659467 0.08239 
-0.0015697975 0.9990105 0.044449937 
0.006071304 0.99982023 0.017966596 
0.016693942 0.9998449 0.0056174914 
0.018958222 0.99976075 0.010917807 
0.014333907 0.9996102 0.023961544 
0.0045790295 0.9995034 0.031177357 
-0.01349163 0.9994191 0.031297915 
-0.027588809 0.99913263 0.031190174 
-0.030630281 0.99909353 0.02956034 
-0.025849868 0.9994449 0.021019945 
-0.011996408 0.9998643 0.011298967 
0.0033430392 0.99995816 0.008518653 
0.0004942624 0.9999533 0.009656802 
-0.02059976 0.9997109 0.012406904 
-0.037169628 0.9992132 0.013834344 
-0.038520552 0.99916315 0.013756578 
-0.03110264 0.99945563 0.011006788 
-0.01856381 0.99982774 -0.00021846415 
-0.0032599175 0.9999402 -0.010441244 
0.013882151 0.9998663 -0.00864864 
0.03889823 0.99924314 -9.178325e-05 
0.063094735 0.9979782 0.0076565165 
0.06517231 0.99779445 0.012602348 
0.035241637 0.9991935 0.019247085 
-0.0054114033 0.9996332 0.0265411 
-0.024776986 0.9993437 0.026427755 
-0.0210667 0.9994455 0.025788177 
-0.011339976 0.99930143 0.035612486 
-0.0051017725 0.9987855 0.049006436 
-0.011147795 0.9967634 0.07961537 
-0.012542376 0.9985191 0.05293696 
-0.0113629 0.9996674 0.023155104 
-0.0035330704 0.9999812 0.0050196475 
0.0071886536 0.99997324 -0.0014203005 
0.016926 0.99985164 0.0032076105 
0.018785227 0.9996821 0.016819518 
0.017060516 0.99944085 0.028758477 
0.011502105 0.99940455 0.032532666 
-0.0008548673 0.9994204 0.034030553 
-0.009225993 0.99924976 0.03761654 
-0.010128475 0.9993839 0.033606723 
-0.0038926387 0.9998667 0.015861332 
0.01076185 0.99994045 -0.0018027677 
0.02047378 0.99977404 -0.005714095 
0.009208975 0.99995667 0.0013686593 
-0.014081421 0.99982715 0.012141213 
-0.02703356 0.9994934 0.01679781 
-0.02855302 0.99947125 0.015557329 
-0.031241274 0.99944335 0.01170889 
-0.033990324 0.99941635 0.0034257162 
-0.026466679 0.99964833 -0.0016824887 
-0.0045357095 0.9999898 -0.00014480518 
0.027778782 0.9996011 0.0050931093 
0.0534953 0.9984817 0.013137672 
0.052911017 0.9984095 0.019470066 
0.02096949 0.99951494 0.02302638 
-0.0171698 0.99960935 0.022055123 
-0.029180164 0.9994991 0.012250802 
-0.01706157 0.9998434 0.0047097905 
-0.0037197953 0.9999334 0.010930112 
0.0007817293 0.9997408 0.022754598 
-0.0022739274 0.9998032 0.019708168 
-0.0045371805 0.9999722 0.005922312 
-0.002366722 0.9999458 -0.010137868 
0.0082531795 0.99981934 -0.017125687 
0.020465704 0.99969774 -0.013623452 
0.026037598 0.9996599 -0.00146413 
0.021700086 0.9996691 0.013813665 
0.017364101 0.99953574 0.025038032 
0.012517412 0.9994481 0.030771742 
0.004514611 0.9993129 0.036788195 
1.5355628e-05 0.9990923 0.042598728 
-0.00045707962 0.999488 0.03199412 
0.0067951027 0.9999717 0.0032519957 
0.018447021 0.99966 -0.018428411 
0.017136227 0.99968386 -0.018399302 
-0.0005284228 0.9999929 -0.0037211971 
-0.016222568 0.9997835 0.013031244 
-0.015707536 0.9996955 0.01903156 
-0.010494938 0.99980575 0.016684843 
-0.01722437 0.9997722 0.012604815 
-0.02750971 0.99959487 0.00729616 
-0.020830415 0.9997766 0.0035779362 
0.004840492 0.9999883 0.00013084649 
0.034343123 0.99940974 0.0008405489 
0.048612453 0.9987732 0.009440629 
0.034001254 0.99928916 0.016288433 
-0.0074511585 0.999833 0.016693126 
-0.04597216 0.99888384 0.010849586 
-0.052718867 0.998609 -0.0008873656 
-0.037113238 0.9992949 -0.0056877243 
-0.0256275 0.99966294 0.004156811 
-0.024804277 0.999543 0.017280549 
0.005444977 0.9998545 -0.016169162 
0.006684422 0.9997963 -0.019047208 
0.0133542 0.99964094 -0.023231408 
0.026280731 0.9993877 -0.023099458 
0.038043752 0.9991286 -0.017171964 
0.039065994 0.9992184 -0.00603455 
0.03066945 0.9995082 0.006542727 
0.024273165 0.9995321 0.018611776 
0.016537622 0.9994688 0.028084155 
0.007052318 0.99927795 0.037333924 
0.00056725036 0.9990893 0.042665854 
-0.0022116175 0.9996924 0.024703909 
0.0035131609 0.9999414 -0.010240027 
0.0069876546 0.99955595 -0.028968932 
-0.006605812 0.9997274 -0.022393106 
-0.026356362 0.99964774 -0.003132513 
-0.030705024 0.9994408 0.013243876 
-0.015157254 0.9997756 0.014806167 
0.0017357492 0.99997014 0.0075291647 
0.0023077293 0.9999965 0.001380246 
-0.0021276933 0.9999947 -0.0024625573 
0.009535376 0.99992925 -0.0071149347 
0.032028068 0.99940443 -0.012850549 
0.04611488 0.99890834 -0.0074532544 
0.040664073 0.9991201 0.01027763 
0.0098450985 0.99971837 0.02159752 
-0.03868241 0.99901503 0.021744875 
-0.072486416 0.9972249 0.016975388 
-0.07081122 0.9974299 0.0109249735 
-0.05084835 0.9986097 0.013898547 
-0.037322104 0.99889874 0.028431272 
-0.03415368 0.99854255 0.041788787 
0.014500532 0.99957365 -0.025345728 
0.020941257 0.9995105 -0.02324265 
0.032544583 0.9992552 -0.020735158 
0.04625155 0.99878025 -0.017285189 
0.056434877 0.99832845 -0.012466645 
0.054831397 0.9984832 -0.004994753 
0.045176767 0.9989665 0.005012177 
0.034396943 0.99924874 0.017858196 
0.0177175 0.9994601 0.02766989 
0.0003330435 0.99936414 0.035654657 
-0.011897151 0.9992866 0.035844933 
-0.015451509 0.99983233 0.009831515 
-0.009080861 0.99964696 -0.024972958 
-0.011303867 0.99935144 -0.034190774 
-0.031203644 0.999315 -0.01989571 
-0.049528554 0.9987727 -0.0004460402 
-0.046518017 0.998873 0.009423502 
-0.022663046 0.9997399 0.0025858185 
0.0044848034 0.99993116 -0.010844571 
0.017047869 0.99967873 -0.018760648 
0.022882916 0.9995031 -0.021679396 
0.0373218 0.9989399 -0.02694824 
0.050270483 0.9983128 -0.029060896 
0.049183577 0.99874395 -0.009570562 
0.034244485 0.9991368 0.02351783 
0.00041160083 0.99918085 0.040467184 
-0.045985553 0.99815476 0.039655164 
-0.07325143 0.9967124 0.03462318 
-0.067505755 0.99729836 0.028966276 
-0.047410358 0.99844503 0.02932423 
-0.031104617 0.9987633 0.038784973 
-0.022254677 0.9985873 0.048250906 
0.01858093 0.9998246 0.002368876 
0.0290174 0.9995788 0.0005507331 
0.044463176 0.99901104 -0.00034291644 
0.05910975 0.9982514 -0.00048495826 
0.06769885 0.99770576 0.00043410744 
0.063126795 0.9979988 0.0036873731 
0.050225794 0.9986912 0.009655611 
0.03210761 0.9993437 0.016777372 
0.0066040796 0.99979967 0.018893495 
-0.01667419 0.99965197 0.020445334 
-0.029712092 0.99947655 0.01280293 
-0.026575292 0.99951047 -0.016511315 
-0.015207132 0.9990755 -0.040211815 
-0.019560596 0.9992764 -0.03262181 
-0.040409006 0.99913234 -0.010090274 
-0.05562953 0.9984338 0.0059369705 
-0.050626136 0.9986926 0.007084026 
-0.027086861 0.99961436 -0.00612524 
0.0019586803 0.99977124 -0.021299707 
0.018608145 0.99943995 -0.027814373 
0.02703036 0.99918145 -0.030099258 
0.038981102 0.9985345 -0.03754311 
0.045741662 0.9982536 -0.037383437 
0.043523062 0.99901706 -0.008414334 
0.034708627 0.99885786 0.0328388 
0.0074115223 0.9985986 0.052402645 
-0.034883473 0.99800044 0.05271013 
-0.062162325 0.99686366 0.048976097 
-0.06265023 0.9971815 0.041281976 
-0.050359342 0.99819237 0.032801952 
-0.037911724 0.99880177 0.030949198 
-0.028398339 0.9990132 0.03415187 
0.005653469 0.9988979 0.046596505 
0.017368445 0.99922997 0.035185017 
0.035583887 0.9990862 0.023675565 
0.052952223 0.99847245 0.015778337 
0.061213143 0.9980511 0.012125485 
0.053982325 0.99848956 0.010230111 
0.03803552 0.99924195 0.008299846 
0.016606743 0.99985665 0.0033057432 
-0.008109779 0.9999515 -0.0055953916 
-0.027282095 0.999582 -0.009575528 
-0.032439075 0.9992844 -0.019450553 
-0.01990614 0.9990408 -0.03900401 
-0.0077470513 0.9991069 -0.041538157 
-0.016043786 0.9996941 -0.018821022 
-0.03505532 0.999372 0.0051701926 
-0.045578796 0.99886864 0.013567889 
-0.041340757 0.99912125 0.0069155255 
-0.024188636 0.99967265 -0.008339313 
-0.0020861086 0.9998002 -0.019882767 
0.009186902 0.9997555 -0.020115908 
0.013167064 0.99972767 -0.019271167 
0.020543389 0.99936044 -0.029268902 
0.024828307 0.9991429 -0.033123687 
0.025570057 0.9996414 -0.007952671 
0.023522137 0.9992595 0.03045338 
0.0057941326 0.9986581 0.051464107 
-0.025724767 0.99804944 0.056881297 
-0.049071252 0.99707836 0.05853872 
-0.054415226 0.997064 0.053872727 
-0.049706243 0.9978953 0.041646127 
-0.04414747 0.9985291 0.03147551 
-0.03792721 0.99884605 0.029465409 
-0.018611858 0.997256 0.07165393 
-0.009813905 0.9985474 0.052980103 
0.007830629 0.999431 0.032808132 
0.02751364 0.99943334 0.019396363 
0.0361353 0.9992614 0.013073523 
0.02903973 0.9995571 0.006516873 
0.014633206 0.9998837 -0.0043100365 
-0.0017745632 0.9997548 -0.022071559 
-0.016566128 0.9991121 -0.038739007 
-0.025364775 0.9988063 -0.04174686 
-0.019990725 0.99894613 -0.041315325 
-0.004191472 0.99919736 -0.039839394 
0.0012518462 0.9996788 -0.025313003 
-0.009813456 0.99995065 -0.0015702562 
-0.022726841 0.9996458 0.013848787 
-0.0273102 0.99955744 0.011802692 
-0.024378598 0.9997021 -0.0012039082 
-0.014264297 0.9997838 -0.0151256565 
-0.00080985023 0.9998459 -0.017536327 
0.0031176964 0.99998623 -0.004237664 
0.0016782716 0.9999758 0.006765148 
0.0040045963 0.9999908 -0.001549782 
0.004104083 0.9998974 -0.013726449 
0.0021787027 0.9999875 -0.0045063607 
-2.3901848e-05 0.9997922 0.020383764 
-0.0082424525 0.99923146 0.038322426 
-0.02058297 0.99873555 0.04586653 
-0.02879253 0.9983747 0.04918383 
-0.029753575 0.9985365 0.045161538 
-0.02825605 0.99921393 0.027805218 
-0.029812394 0.99952674 0.007586398 
-0.029238703 0.9995715 -0.0014519108 
-0.03521757 0.99680424 0.0717013 
-0.032925498 0.9981463 0.051184583 
-0.021059474 0.9993986 0.027551986 
-0.0038351135 0.9999173 0.012271629 
0.004105052 0.99997866 0.0050853034 
0.00074896746 0.99999076 -0.00424708 
-0.00689069 0.9997328 -0.022067167 
-0.013628946 0.9987681 -0.047715016 
-0.018617995 0.9977342 -0.06465358 
-0.01937754 0.9980459 -0.05940389 
-0.008994612 0.9990888 -0.041721333 
0.0025010642 0.9997161 -0.023694571 
0.0021747884 0.99996704 -0.007824191 
-0.0054341536 0.9999721 0.00513782 
-0.010784963 0.9998987 0.009296042 
-0.010293063 0.9999471 1.15256535e-05 
-0.0060335263 0.9998689 -0.015025069 
0.0018857745 0.9996876 -0.024922429 
0.009904163 0.99979985 -0.017382078 
0.008353342 0.999924 0.009074575 
0.0029008894 0.9995117 0.031113604 
0.0012129168 0.9996199 0.02754596 
-0.0015032735 0.99996215 0.008572951 
-0.006826332 0.99997663 -0.00031579172 
-0.01473658 0.99987125 0.0063504144 
-0.021089837 0.9996552 0.0156435 
-0.018097613 0.9996659 0.01845201 
-0.009311693 0.99988157 0.012255634 
-0.0045919474 0.999959 -0.007811398 
-0.011057075 0.9987469 -0.048810124 
-0.02765538 0.9950283 -0.09567642 
-0.03833765 0.9916969 -0.12274942 
-0.035258703 0.9971402 0.06684519 
-0.04002802 0.99809134 0.047026634 
-0.03668044 0.99908626 0.021936225 
-0.025725033 0.99965847 0.0046206107 
-0.019056052 0.9998067 -0.004839928 
-0.018078718 0.99969655 -0.016731914 
-0.018780557 0.99912107 -0.037476104 
-0.018420096 0.99792415 -0.061711244 
-0.019417753 0.9972277 -0.07183197 
-0.019143535 0.99815124 -0.057685796 
-0.01223202 0.99946153 -0.03044963 
-0.0064961184 0.9999257 -0.010326993 
-0.0052892556 0.99998474 -0.0016224036 
-0.005314034 0.9999814 0.0030183333 
-0.0038635116 0.99998915 0.0026048925 
0.003072898 0.9999733 -0.006631279 
0.013162187 0.9997235 -0.019488728 
0.0214976 0.99941546 -0.026580796 
0.023356924 0.9996023 -0.015800063 
0.01662552 0.99976516 0.01390426 
0.010343507 0.9991538 0.039810445 
0.010246411 0.9991515 0.03989273 
0.011254325 0.9997497 0.019334208 
0.0062774513 0.99997973 0.0010812683 
-0.008129833 0.9999542 -0.00506555 
-0.018565575 0.99981105 -0.005762717 
-0.01025855 0.9998613 -0.01312051 
0.0060365275 0.99914235 -0.040967032 
0.007674594 0.99492717 -0.10030492 
-0.018466765 0.98027915 -0.19675338 
-0.06348176 0.94896543 -0.30892497 
-0.09268909 0.91788715 -0.38586527 
-0.021412415 0.99721545 0.07143486 
-0.029510792 0.9981979 0.052250426 
-0.031458937 0.99919766 0.02478551 
-0.025495788 0.99967253 0.0021916186 
-0.020318557 0.9997108 -0.012864617 
-0.019126438 0.9994362 -0.027597757 
-0.019338848 0.99878603 -0.045303233 
-0.019521272 0.99797297 -0.060572576 
-0.0232606 0.99773955 -0.06304587 
-0.027793573 0.99855465 -0.046003103 
-0.026990125 0.9994437 -0.019593893 
-0.022516984 0.9997418 -0.0030914969 
-0.016350232 0.99986404 0.002164922 
-0.011338375 0.9999227 0.005115801 
-0.004524971 0.999976 0.0052532684 
0.011870879 0.9999296 -9.205744e-05 
0.031158902 0.99946964 -0.009462943 
0.039984412 0.99906063 -0.016704239 
0.033792116 0.99936813 -0.01101638 
0.020428447 0.99973845 0.010292945 
0.014225977 0.99940044 0.031565044 
0.019600276 0.9992351 0.0338386 
0.029010512 0.99940515 0.018648151 
0.029162789 0.9995725 0.0021024556 
0.014226791 0.9998385 -0.010990811 
0.0011271102 0.99973756 -0.022882055 
0.0062178965 0.99907315 -0.042594664 
0.019023849 0.9951927 -0.09607068 
0.013633501 0.9780899 -0.20773643 
-0.02877491 0.9201221 -0.3905734 
-0.09701616 0.7753947 -0.6239801 
-0.1392339 0.5950083 -0.79156756 
-0.006956905 0.997291 0.07322823 
-0.012503449 0.99836236 0.055825084 
-0.0123425685 0.9995351 0.027881265 
-0.0061441446 0.99998087 0.00077017845 
-0.0021243624 0.9998033 -0.019717997 
-0.005135868 0.9993299 -0.036239423 
-0.011279578 0.9987536 -0.048622552 
-0.01661098 0.998332 -0.055292357 
-0.024474615 0.99828416 -0.053196628 
-0.033284415 0.9987974 -0.03599852 
-0.036039874 0.9992861 -0.011333616 
-0.03167338 0.9994884 0.0044497363 
-0.025156267 0.9996346 0.009891645 
-0.01983243 0.9997189 0.012995749 
-0.007601405 0.9998497 0.015586364 
0.018695118 0.99971277 0.015000353 
0.043797366 0.9990033 0.008616847 
0.04853668 0.9988207 -0.0011625615 
0.032759998 0.99944466 -0.006102083 
0.013353124 0.99990994 0.0013773218 
0.008556862 0.99982345 0.016731706 
0.020570118 0.9995016 0.023947246 
0.038552895 0.9990544 0.020104522 
0.047452908 0.9988146 0.010846563 
0.039482262 0.9991921 -0.007511066 
0.027450608 0.99915814 -0.030487182 
0.027694756 0.9978242 -0.059833642 
0.03770034 0.99067855 -0.1308994 
0.037606463 0.9578949 -0.28464586 
0.01269837 0.8352548 -0.54971665 
-0.022189684 0.47008887 -0.8823401 
-0.027070701 -0.011922731 -0.99956244 
-0.001760593 0.99885064 0.04789999 
-0.0017099852 0.9993466 0.03610459 
0.004823912 0.99988586 0.014325195 
0.014803878 0.9998354 -0.010502164 
0.018664256 0.9993445 -0.031018842 
0.010997547 0.9988994 -0.04559678 
-0.0012271818 0.9986403 -0.05211744 
-0.009042267 0.99856776 -0.0527334 
-0.015636882 0.9987023 -0.048469007 
-0.022893695 0.9992479 -0.031298473 
-0.026037542 0.9996366 -0.006993543 
-0.024468957 0.99966276 0.008704297 
-0.022805067 0.99963814 0.014269438 
-0.019221937 0.9996309 0.019202322 
-0.0026749899 0.9996538 0.026174644 
0.027362537 0.999203 0.02906289 
0.050036874 0.99848765 0.02277836 