# OOMMF OVF 2.0
# Segment count: 1
# Begin: Segment
# Begin: Header
# Title: m
# meshtype: rectangular
# meshunit: m
# xmin: 0
# ymin: 0
# zmin: 0
# xmax: 1.6e-07
# ymax: 1.6e-07
# zmax: 5e-09
# valuedim: 3
# valuelabels: m_x m_y m_z
# valueunits: 1 1 1
# Desc: Total simulation time:  7.952670111023563e-11  s
# xbase: 2.5e-09
# ybase: 2.5e-09
# zbase: 2.5e-09
# xnodes: 32
# ynodes: 32
# znodes: 1
# xstepsize: 5e-09
# ystepsize: 5e-09
# zstepsize: 5e-09
# End: Header
# Begin: Data Text
0.049783003 0.9967259 0.06371111 
0.04110086 0.9971224 0.06370082 
0.032198418 0.99731404 0.06578848 
0.018727796 0.99708617 0.07394956 
-0.001944851 0.9958278 0.09123266 
-0.029779032 0.9929395 0.11482332 
-0.063091435 0.98872226 0.13582258 
-0.09922018 0.9843553 0.14560284 
-0.13552944 0.9804515 0.14264196 
-0.16852054 0.97676563 0.13240054 
-0.19271316 0.97394633 0.119542144 
-0.20628466 0.97329646 0.10070113 
-0.21511053 0.9741654 0.06876981 
-0.2241662 0.97423995 0.024622073 
-0.22743349 0.973533 -0.022530247 
-0.2122121 0.9751516 -0.06360507 
-0.1729453 0.98047954 -0.09354051 
-0.11736589 0.9868828 -0.11084936 
-0.059591923 0.9911395 -0.118707284 
-0.011411867 0.9923499 -0.12292905 
0.021279788 0.99193287 -0.12496599 
0.040187787 0.9920025 -0.11964943 
0.051546358 0.9934376 -0.10210135 
0.059006352 0.9955005 -0.07414258 
0.06167974 0.9971384 -0.04371106 
0.059378445 0.99805075 -0.019210529 
0.0541362 0.99852484 -0.0041811727 
0.04577432 0.99894935 0.0022338186 
0.032523185 0.9994693 0.0018627405 
0.015413342 0.9998758 -0.0032969501 
-0.0024217747 0.99994844 -0.0098708235 
-0.01852549 0.9997278 -0.014183013 
0.034198105 0.9977107 0.058342483 
0.031346582 0.9978494 0.05756794 
0.025666999 0.997962 0.05842099 
0.015008774 0.9978408 0.06394091 
-0.002117489 0.9970554 0.07665573 
-0.02533938 0.9952047 0.094475836 
-0.053305782 0.9924662 0.11031462 
-0.083971694 0.9895637 0.11710109 
-0.115254685 0.98682666 0.11353204 
-0.14400753 0.98409235 0.10403852 
-0.16519515 0.9819029 0.092614144 
-0.1768655 0.9812644 0.07641193 
-0.18413696 0.9816469 0.04963009 
-0.19167982 0.9813735 0.012847161 
-0.19470313 0.98051035 -0.026274247 
-0.18242173 0.9813686 -0.060316917 
-0.14977378 0.98506826 -0.08490239 
-0.10309489 0.9897869 -0.098454356 
-0.054164376 0.9931596 -0.10344186 
-0.01309979 0.9943746 -0.105107605 
0.015006407 0.99433786 -0.10520029 
0.03159936 0.994513 -0.09972753 
0.041988816 0.995542 -0.084457666 
0.049159676 0.9969519 -0.0605845 
0.052021123 0.99805087 -0.03447142 
0.050132677 0.99865454 -0.013259222 
0.045166746 0.99897945 -0.00027627137 
0.037116725 0.99929863 0.004959479 
0.024986615 0.9996795 0.004059508 
0.010340114 0.99994624 -0.00087482727 
-0.0030776486 0.99997216 -0.006799754 
-0.01195569 0.9998724 -0.010605224 
0.022775 0.9982206 0.05510961 
0.022125538 0.99832356 0.053485397 
0.01880102 0.9984409 0.05255715 
0.010750569 0.9984568 0.054485586 
-0.0027304636 0.9981132 0.061340746 
-0.021117467 0.99719226 0.07184491 
-0.043160502 0.9957862 0.080913715 
-0.06752861 0.9942272 0.083380766 
-0.09276936 0.9926107 0.078217745 
-0.116279885 0.99082077 0.06894469 
-0.13351673 0.9893168 0.058528777 
-0.142633 0.98875314 0.044978376 
-0.1479309 0.9887145 0.023667788 
-0.15373136 0.98810184 -0.004643116 
-0.15659966 0.9870707 -0.034178924 
-0.14776121 0.98723966 -0.059369072 
-0.123035826 0.9894086 -0.0770255 
-0.08699427 0.99252033 -0.08564743 
-0.048713893 0.99501884 -0.08697435 
-0.016084177 0.9962145 -0.08542867 
0.006634373 0.9965202 -0.08308754 
0.020518236 0.9968085 -0.07714895 
0.029811928 0.99749845 -0.06409424 
0.03667135 0.998341 -0.0443895 
0.03989398 0.99894416 -0.022786187 
0.038674973 0.9992394 -0.0049859616 
0.034104154 0.9994014 0.0058293417 
0.026414681 0.99960506 0.009595041 
0.015338493 0.99985147 0.007872161 
0.0030698646 0.9999911 0.00291453 
-0.0067794225 0.9999743 -0.0023468211 
-0.011977931 0.99991286 -0.005554543 
0.015937857 0.9984342 0.053620346 
0.0159769 0.99855876 0.051237322 
0.01367174 0.99873066 0.048478317 
0.007181818 0.998878 0.046810836 
-0.003916754 0.9988457 0.047875587 
-0.018529212 0.9985225 0.05108251 
-0.035500802 0.9979541 0.05317481 
-0.05387662 0.9972575 0.050743546 
-0.07298889 0.9963856 0.04345747 
-0.09093497 0.9952786 0.03393383 
-0.10398727 0.99427545 0.024558175 
-0.11049424 0.9937849 0.013513706 
-0.114017084 0.9934761 -0.002347082 
-0.11849497 0.9927002 -0.022477355 
-0.12140203 0.9917007 -0.042324305 
-0.115999505 0.9915343 -0.05834421 
-0.0987048 0.992743 -0.06869348 
-0.07278406 0.9947184 -0.07237267 
-0.044477634 0.996519 -0.07051065 
-0.019615596 0.9975944 -0.06648862 
-0.0016393792 0.9980566 -0.062293217 
0.009880768 0.9983867 -0.055913813 
0.017906122 0.998847 -0.044544972 
0.024056278 0.99930835 -0.0283608 
0.027191006 0.99957246 -0.010751597 
0.02648887 0.999642 0.0037664731 
0.022517933 0.9996697 0.012396185 
0.015427077 0.99977285 0.014710734 
0.0055239247 0.999912 0.012062921 
-0.0047340654 0.9999645 0.0069789933 
-0.012099185 0.99992436 0.0022311592 
-0.015325951 0.9998825 -0.00035419132 
0.011888746 0.99852234 0.053026512 
0.012077142 0.99867827 0.04995913 
0.010186837 0.99891096 0.045532927 
0.0043754326 0.9991605 0.040732868 
-0.0052170474 0.9993071 0.036852 
-0.017109746 0.99928063 0.03384776 
-0.029766476 0.999112 0.029819096 
-0.042696457 0.99882424 0.022963414 
-0.055904184 0.99834573 0.013442006 
-0.06847816 0.99764574 0.0036989504 
-0.07764648 0.99697006 -0.0046627177 
-0.08200248 0.99654853 -0.012905438 
-0.084567174 0.9961325 -0.023842588 
-0.08850719 0.99539894 -0.036708422 
-0.09215919 0.9945726 -0.04829291 
-0.089947805 0.9943514 -0.056345865 
-0.07911289 0.99503624 -0.060366202 
-0.06153703 0.9962975 -0.06003815 
-0.04141496 0.9975742 -0.055951685 
-0.02264651 0.9984637 -0.05057162 
-0.008187343 0.99894446 -0.045199465 
0.0015121456 0.99926 -0.038434558 
0.008210433 0.99957186 -0.028085323 
0.012924482 0.9998137 -0.014334735 
0.015127851 0.9998856 6.245999e-05 
0.014246006 0.9998295 0.011757166 
0.010636547 0.9997748 0.018363487 
0.0042663873 0.99980426 0.019322066 
-0.004311756 0.999867 0.01573151 
-0.012721294 0.9998672 0.01018683 
-0.01821979 0.9998186 0.005559271 
-0.0202625 0.9997894 0.00326757 
0.00879763 0.99857867 0.05256573 
0.009167767 0.9987626 0.048880417 
0.0076872692 0.99904156 0.04309381 
0.0026219375 0.9993545 0.03583152 
-0.0056576417 0.9995855 0.028230358 
-0.015061619 0.9996754 0.020548258 
-0.023978483 0.9996405 0.012001294 
-0.03204284 0.999485 0.0017372348 
-0.04009034 0.99915195 -0.009386948 
-0.048036125 0.9986584 -0.019340115 
-0.053899664 0.9981964 -0.026432903 
-0.05694331 0.9978602 -0.032132454 
-0.059389696 0.99748176 -0.038769323 
-0.0640045 0.9968792 -0.04621012 
-0.0690193 0.99627143 -0.051765792 
-0.070015825 0.99607265 -0.05419553 
-0.064308666 0.9964805 -0.053767283 
-0.05323886 0.9973003 -0.050575018 
-0.039299604 0.9982045 -0.045203336 
-0.02515758 0.9989241 -0.03896113 
-0.013356782 0.9993686 -0.03292399 
-0.00498034 0.9996559 -0.025754234 
0.00047214594 0.99987334 -0.015910247 
0.003663362 0.99998635 -0.0037456686 
0.004375391 0.99995506 0.008420147 
0.0027683591 0.99983793 0.017793173 
-0.00087715796 0.9997411 0.0227375 
-0.006613309 0.9997229 0.022595372 
-0.013991154 0.9997356 0.018252993 
-0.020862507 0.99970824 0.012179116 
-0.025227679 0.99965537 0.007265889 
-0.026619164 0.9996337 0.0049026436 
0.00509663 0.9986965 0.050787207 
0.0058347303 0.99889266 0.046684016 
0.005211249 0.9991898 0.03990815 
0.0014462192 0.9995178 0.031017566 
-0.004946754 0.999769 0.02092054 
-0.011796994 0.9998776 0.010284423 
-0.017272731 0.9998502 -0.0011242147 
-0.02142622 0.9996823 -0.013272763 
-0.025421517 0.9993573 -0.025274212 
-0.029585607 0.99895275 -0.034903165 
-0.032841414 0.99862164 -0.04094425 
-0.034739513 0.9984068 -0.044464335 
-0.03767404 0.9981297 -0.048143078 
-0.04333556 0.99770916 -0.05194862 
-0.05021383 0.99728185 -0.05392159 
-0.053955454 0.9971333 -0.053046394 
-0.05244645 0.997382 -0.0497858 
-0.046306588 0.9979265 -0.04470575 
-0.037352383 0.9985787 -0.03801932 
-0.027208699 0.99914736 -0.031054648 
-0.01787582 0.99954456 -0.0243155 
-0.010811161 0.99979633 -0.0170402 
-0.0061947736 0.99995 -0.007849844 
-0.0041444288 0.9999872 0.0029273827 
-0.0046455604 0.99990356 0.013090779 
-0.0072156014 0.999764 0.020493563 
-0.011099592 0.99965143 0.023954175 
-0.016435953 0.99959475 0.023245964 
-0.022823226 0.9995599 0.018954724 
-0.028769044 0.9994996 0.013147818 
-0.032542635 0.9994351 0.008398623 
-0.033776198 0.999411 0.0060787806 
-0.00031608224 0.99892503 0.04635443 
0.0008489756 0.99911815 0.041978892 
0.0012926856 0.99940234 0.034546837 
-0.0008006532 0.99969923 0.024512809 
-0.0050921594 0.9999027 0.012988714 
-0.009418081 0.9999555 0.00070134766 
-0.01214576 0.9998543 -0.011994529 
-0.013365553 0.99959904 -0.02496423 
-0.014291 0.99921674 -0.03690434 
-0.015424113 0.99881864 -0.04608285 
-0.01597307 0.9985649 -0.051117 
-0.016490053 0.99844044 -0.053337075 
-0.01898305 0.9983051 -0.055015236 
-0.025177637 0.9980756 -0.05666807 
-0.03303481 0.9978517 -0.05657482 
-0.038936723 0.9977953 -0.053746525 
-0.040525045 0.997993 -0.04865989 
-0.038402922 0.99839413 -0.04164572 
-0.03361582 0.99887526 -0.033439625 
-0.02720446 0.999317 -0.025010027 
-0.020583358 0.99963504 -0.01749596 
-0.0149907265 0.9998354 -0.0102327475 
-0.0112231625 0.9999349 -0.0020590182 
-0.009917234 0.99992657 0.006973076 
-0.0115018785 0.99981856 0.01518205 
-0.015115063 0.9996731 0.020619385 
-0.019714292 0.99954766 0.022712536 
-0.02494937 0.99945563 0.021586921 
-0.03065918 0.9993694 0.017916944 
-0.03574764 0.99927324 0.013241079 
-0.039210998 0.9991866 0.009428084 
-0.040321633 0.9991585 0.00752159 
-0.0064887595 0.9992273 0.038765036 
-0.005144452 0.9993977 0.03431887 
-0.0040636887 0.9996433 0.026398474 
-0.0050086337 0.9998638 0.015725465 
-0.007697917 0.99996436 0.0034628646 
-0.010175366 0.99990517 -0.009286383 
-0.010888091 0.9996916 -0.022319209 
-0.010005485 0.9993326 -0.03513279 
-0.008661478 0.99887323 -0.046660867 
-0.0071527483 0.9984611 -0.05499392 
-0.005280384 0.99822724 -0.059283555 
-0.0035654167 0.9981661 -0.060431823 
-0.0045641363 0.9981384 -0.060819853 
-0.009561723 0.99809307 -0.06098158 
-0.017232547 0.99807566 -0.059565466 
-0.02401958 0.99816585 -0.055570614 
-0.027850363 0.9984087 -0.049035873 
-0.028579645 0.99876666 -0.04059952 
-0.026989037 0.999167 -0.03061028 
-0.023666611 0.9995058 -0.02069165 
-0.019556923 0.999737 -0.011983009 
-0.015691692 0.999867 -0.004454974 
-0.012938942 0.99991167 0.0030570768 
-0.012484445 0.9998626 0.0109101115 
-0.015050735 0.9997308 0.017658973 
-0.019980984 0.9995668 0.0216116 
-0.025719205 0.99942356 0.022162281 
-0.03147987 0.9993054 0.019944279 
-0.03680994 0.999192 0.016135288 
-0.04133995 0.999072 0.012096342 
-0.04432444 0.99897647 0.009028578 
-0.0452801 0.99894613 0.0075092176 
-0.010560703 0.99958104 0.026951242 
-0.009429941 0.9996998 0.02261831 
-0.008482652 0.9998558 0.014717885 
-0.009165347 0.99994963 0.004100859 
-0.011056979 0.99990976 -0.0076301647 
-0.012339131 0.99973273 -0.019554967 
-0.011653867 0.99943954 -0.031382337 
-0.009331469 0.9990325 -0.042976774 
-0.00632283 0.99857056 -0.053074766 
-0.0031050907 0.99818426 -0.060154844 
0.00080413587 0.99799776 -0.06324533 
0.0045511024 0.997971 -0.063507505 
0.0058971085 0.99800104 -0.06292187 
0.0027745422 0.9980653 -0.062112708 
-0.0037000198 0.9982025 -0.059818435 
-0.010709766 0.99843365 -0.054914586 
-0.01571132 0.9987331 -0.04780707 
-0.01813043 0.9990857 -0.038718343 
-0.018396193 0.99943227 -0.028229024 
-0.017133037 0.999702 -0.017394463 
-0.015056218 0.9998566 -0.0077558793 
-0.012834734 0.9999175 0.00051891 
-0.011220087 0.99990326 0.008220099 
-0.0114220325 0.9998121 0.015661174 
-0.0145684555 0.99965733 0.021751089 
-0.020392986 0.99949074 0.024546087 
-0.027426457 0.99935246 0.023293978 
-0.034119483 0.99923676 0.019022914 
-0.039853774 0.99911153 0.013706457 
-0.04423371 0.9989793 0.009154519 
-0.04712586 0.9988699 0.0061862865 
-0.047939602 0.99883866 0.004814342 
-0.0108685745 0.9998975 0.009322803 
-0.0101619195 0.99993277 0.005585983 
-0.009743856 0.9999515 -0.0014702794 
-0.01054674 0.99988836 -0.0105868075 
-0.011984252 0.9997226 -0.020274336 
-0.012408359 0.9994875 -0.029511604 
-0.010852335 0.9992027 -0.03842129 
-0.0076753926 0.9988641 -0.047028787 
-0.0039896844 0.99850684 -0.054482356 
6.227778e-05 0.9982438 -0.059239265 
0.004911614 0.99814093 -0.06074947 
0.010258964 0.9981365 -0.06015313 
0.013412821 0.9981573 -0.05917894 
0.012289474 0.9982477 -0.057884376 
0.0071964352 0.99847597 -0.054718554 
0.00077257125 0.9987935 -0.04910296 
-0.0044764224 0.99912167 -0.041663658 
-0.0075785667 0.9994216 -0.03315024 
-0.00890764 0.99969 -0.023251895 
-0.009174256 0.99987817 -0.012634381 
-0.008861518 0.99995804 -0.0023498295 
-0.008262576 0.9999431 0.00676466 
-0.0077600563 0.9998612 0.01474376 
-0.008311402 0.99973196 0.021609832 
-0.011264686 0.9995898 0.026332682 
-0.0170918 0.99948025 0.02733551 
-0.024620982 0.9994139 0.02378226 
-0.032204606 0.99933714 0.016977258 
-0.038451135 0.99921346 0.009696109 
-0.04318695 0.9990578 0.004303795 
-0.0462033 0.9989311 0.0013924299 
-0.047192354 0.99888575 0.0003014994 
-0.007748107 0.9998994 -0.0118825445 
-0.0074193343 0.99986756 -0.014490493 
-0.0073677776 0.9997815 -0.019562125 
-0.008148954 0.9996292 -0.025983023 
-0.009063052 0.99943846 -0.032260485 
-0.008979121 0.99924994 -0.037669543 
-0.007171487 0.999073 -0.04244693 
-0.0041713305 0.99888587 -0.04700778 
-0.00082834647 0.9987085 -0.050801102 
0.002802223 0.9986097 -0.052638404 
0.007739759 0.9985984 -0.05235955 
0.013592918 0.9985946 -0.051225677 
0.018150631 0.9985628 -0.05042771 
0.018986342 0.9986187 -0.048992265 
0.016079165 0.9988492 -0.045185346 
0.011250775 0.99918777 -0.03869599 
0.006536946 0.99949294 -0.031164836 
0.0030302035 0.9997245 -0.023277653 
0.00048202448 0.9998956 -0.014448154 
-0.0014565747 0.9999904 -0.0041502845 
-0.00297718 0.9999744 0.0065127257 
-0.0040747332 0.9998627 0.016068462 
-0.004816077 0.9997132 0.02346062 
-0.005853074 0.99958533 0.028195407 
-0.008316072 0.99951893 0.029878933 
-0.013085527 0.99952924 0.027750125 
-0.019835815 0.9995709 0.021556577 
-0.026873875 0.99955875 0.012659398 
-0.03294426 0.99944884 0.0041046953 
-0.037451856 0.9992972 -0.0015813326 
-0.040545657 0.9991699 -0.003959735 
-0.041687287 0.9991203 -0.0045577027 
-0.002046332 0.999526 -0.030720416 
-0.0018476202 0.9994932 -0.03178331 
-0.0019314161 0.9994062 -0.03440082 
-0.002498799 0.99928844 -0.037637264 
-0.0032349518 0.9991801 -0.04035914 
-0.0033220255 0.999114 -0.041956868 
-0.0023300883 0.9990825 -0.042765122 
-0.0005816218 0.9990589 -0.04336985 
0.0012758031 0.9990525 -0.043504305 
0.0036651455 0.99908674 -0.04257279 
0.0076893046 0.99914384 -0.04065309 
0.013509592 0.99913883 -0.039232638 
0.019232845 0.9990668 -0.038674053 
0.022657456 0.99904346 -0.03740048 
0.022824485 0.9991871 -0.033230428 
0.020284696 0.99944824 -0.026301721 
0.016413232 0.9996935 -0.018533157 
0.0121754 0.99986404 -0.011119683 
0.00813771 0.99996245 -0.002980106 
0.0044219196 0.9999672 0.0067818714 
0.0012532849 0.9998497 0.017297179 
-0.0013384934 0.9996526 0.026324635 
-0.0034313633 0.99947935 0.032082517 
-0.005156146 0.99941605 0.03378076 
-0.007035843 0.99947524 0.031620834 
-0.009950298 0.99960834 0.026157547 
-0.01419134 0.99974114 0.017784758 
-0.019265637 0.9997836 0.007857262 
-0.023933645 0.99971294 -0.0011793763 
-0.027860558 0.9995886 -0.0068185274 
-0.030806482 0.9994857 -0.008909909 
-0.032186612 0.9994396 -0.00919742 
0.005125094 0.9990367 -0.04358152 
0.0055964384 0.99905413 -0.043124225 
0.005893225 0.9990404 -0.043400146 
0.0054159197 0.99902 -0.04392874 
0.00422316 0.9990286 -0.043863285 
0.0028183744 0.9990833 -0.042715903 
0.0018995812 0.9991657 -0.040794693 
0.0015860021 0.9992606 -0.038415313 
0.0015698862 0.99936074 -0.03571841 
0.002397833 0.9994757 -0.032290295 
0.0053803883 0.99957085 -0.028796518 
0.01101984 0.9995913 -0.026381727 
0.018167937 0.9995095 -0.025508106 
0.024400974 0.99941045 -0.024154732 
0.027568188 0.99941844 -0.020073645 
0.027074976 0.9995472 -0.013135448 
0.023519726 0.999709 -0.005355672 
0.01834597 0.99983007 0.0018117642 
0.012617841 0.9998798 0.009016554 
0.0072814445 0.99981934 0.017560806 
0.0027579851 0.9996402 0.026679272 
-0.0008868454 0.99941146 0.03429242 
-0.0037250852 0.99926054 0.038270198 
-0.0056077424 0.9992759 0.037633464 
-0.0063326545 0.99944407 0.03273539 
-0.0064257025 0.99967045 0.024855599 
-0.0072946963 0.999856 0.015326251 
-0.009505855 0.99994254 0.0049743014 
-0.0128595615 0.99990803 -0.0043215384 
-0.016513163 0.99980634 -0.010708002 
-0.0198633 0.99971056 -0.013576972 
-0.021735555 0.9996588 -0.014485418 
0.013748987 0.9985771 -0.051523823 
0.014994014 0.99865276 -0.04967839 
0.01593067 0.9987247 -0.047910307 
0.015328007 0.9988105 -0.04628943 
0.01271943 0.9989363 -0.04432466 
0.00888131 0.999087 -0.04178972 
0.0052141193 0.99924165 -0.038588896 
0.0024379636 0.9993932 -0.03474549 
0.00061396183 0.999549 -0.030026266 
8.64267e-05 0.9996993 -0.024523253 
0.0022332785 0.99982256 -0.018703237 
0.007940695 0.99986684 -0.01426356 
0.01638022 0.9997962 -0.0118003385 
0.024689669 0.99964726 -0.009795138 
0.02980986 0.9995386 -0.0058381143 
0.03031914 0.99954003 0.000786429 
0.026841575 0.99960494 0.008341643 
0.020799022 0.9996721 0.014934663 
0.01372847 0.99969125 0.020712 
0.0068252007 0.9996143 0.02692046 
0.0010636768 0.999431 0.03371521 
-0.003134332 0.9992168 0.039446265 
-0.005709839 0.99908525 0.042380136 
-0.0065197833 0.99914116 0.04091997 
-0.0050484077 0.9993757 0.034969196 
-0.0019346791 0.99965775 0.026089786 
0.000865703 0.9998735 0.015882762 
0.001152488 0.99998474 0.005406361 
-0.0013370693 0.99998784 -0.0047593736 
-0.0055526337 0.9999016 -0.012884453 
-0.009776954 0.99978864 -0.018085463 
-0.012293348 0.99971205 -0.02061107 
0.024506425 0.99811006 -0.05635469 
0.02656983 0.9982234 -0.053330883 
0.028028816 0.99836814 -0.049753632 
0.026733559 0.9985749 -0.046189554 
0.022000248 0.9988413 -0.04280443 
0.015130317 0.99910146 -0.03958983 
0.008229832 0.99930775 -0.03628072 
0.0029337597 0.99948186 -0.032053556 
-0.0007352125 0.99965084 -0.026416028 
-0.0024863207 0.99981576 -0.0190352 
-0.0011768007 0.9999415 -0.010748541 
0.004343976 0.99998474 -0.0034151007 
0.013156229 0.9999125 0.0013798665 
0.02202189 0.9997473 0.0045349556 
0.02754038 0.9995832 0.008661274 
0.028414827 0.9994859 0.014848899 
0.025345143 0.99943906 0.0218946 
0.019557906 0.9994281 0.027587578 
0.012012238 0.9994354 0.031378485 
0.003967875 0.999386 0.03481232 
-0.003013462 0.9992457 0.038716987 
-0.0075572617 0.9990557 0.04278652 
-0.009286193 0.9989337 0.04522603 
-0.008131362 0.9989891 0.044212412 
-0.004115326 0.9992429 0.038687576 
0.0021530692 0.9995567 0.029696373 
0.008040334 0.99977756 0.019499294 
0.010627508 0.99990666 0.008587392 
0.008810648 0.99995774 -0.0026323968 
0.0042353175 0.99990237 -0.0133152455 
-0.0005055491 0.99976766 -0.02154969 
-0.0033275944 0.99964976 -0.026257582 
0.036402524 0.9976813 -0.057505798 
0.038889248 0.9977936 -0.053811394 
0.04022753 0.9979902 -0.04896379 
0.037750393 0.9983256 -0.04382998 
0.030763786 0.99876004 -0.03914187 
0.020839656 0.9991552 -0.03542018 
0.010924913 0.99942076 -0.03223133 
0.0029620843 0.99959296 -0.02837497 
-0.0025041453 0.99974185 -0.022586053 
-0.0056386236 0.9998822 -0.0142791625 
-0.005328427 0.99997747 -0.0041088695 
-0.00066396804 0.9999845 0.0055412105 
0.007240585 0.99989766 0.012343489 
0.015187285 0.9997432 0.016821917 
0.020123571 0.99957174 0.021248579 
0.021388847 0.99940205 0.027170997 
0.019647008 0.9992451 0.033514313 
0.015359718 0.9991561 0.038096365 
0.008406596 0.999163 0.040033035 
-0.00031758824 0.9991752 0.040606827 
-0.008389238 0.99908376 0.041966666 
-0.013402767 0.99893034 0.044256866 
-0.014099739 0.9988174 0.04653085 
-0.010941576 0.9988665 0.046323873 
-0.0044320966 0.99911654 0.041790612 
0.0042532682 0.99942887 0.033524312 
0.012609192 0.9996486 0.023320977 
0.01716778 0.9997759 0.012393189 
0.016480848 0.9998642 0.00014077623 
0.012355903 0.9998469 -0.012398567 
0.007979152 0.99970144 -0.02309624 
0.005434028 0.9995499 -0.02950639 
0.046354074 0.9975122 -0.053110622 
0.048577525 0.99758863 -0.049571153 
0.049127225 0.9977976 -0.044569597 
0.045373198 0.99821717 -0.038780555 
0.036527418 0.9987794 -0.033248108 
0.024401939 0.99928164 -0.028997237 
0.011861903 0.99959546 -0.025849668 
0.0016143287 0.9997433 -0.02260399 
-0.005681141 0.9998304 -0.017520776 
-0.0099431155 0.99990493 -0.009553051 
-0.010629196 0.9999432 0.000864971 
-0.0072302343 0.99991053 0.011257212 
-0.00081642 0.99981487 0.019227833 
0.0057063983 0.9996776 0.024743509 
0.010309423 0.9995002 0.029885545 
0.012418563 0.99928653 0.03566761 
0.012598571 0.9990618 0.0414334 
0.010228979 0.99892133 0.04529525 
0.0042497055 0.9989384 0.04587021 
-0.0046350933 0.99899155 0.044658855 
-0.013701161 0.9989517 0.043681283 
-0.019207496 0.9988288 0.044409055 
-0.019554798 0.9987533 0.04593066 
-0.01498345 0.9988276 0.046032976 
-0.0070212274 0.99907804 0.04235509 
0.0030394637 0.99939734 0.03458074 
0.012923318 0.999609 0.02479509 
0.019305363 0.99972004 0.013679351 
0.020641917 0.999786 0.0013608087 
0.018429814 0.9997602 -0.01182843 
0.015673213 0.9996069 -0.023249064 
0.0140604405 0.99944377 -0.030240685 
0.050564576 0.9978422 -0.041883312 
0.052100647 0.9978753 -0.03912107 
0.051696204 0.998051 -0.034952413 
0.047106024 0.9984505 -0.029627107 
0.037533186 0.99900204 -0.024210341 
0.02425682 0.99950725 -0.019920086 
0.010227383 0.9998 -0.017182233 
-0.0018231646 0.99988806 -0.014853904 
-0.010395001 0.9998819 -0.011324898 
-0.015416778 0.9998685 -0.005029817 
-0.016943524 0.9998491 0.0038415138 
-0.014840921 0.99979883 0.013490325 
-0.010061015 0.99971503 0.021652872 
-0.0042719995 0.99959815 0.028025849 
0.00048808294 0.999436 0.033579517 
0.0038799224 0.9992301 0.03904205 
0.0056139017 0.9990096 0.044139367 
0.004821851 0.99886626 0.047360625 
0.00023237924 0.99886346 0.047662616 
-0.008026802 0.9989366 0.04540282 
-0.016897494 0.9989292 0.04307039 
-0.02290437 0.9988512 0.042091828 
-0.023439214 0.9988178 0.042588595 
-0.019051742 0.9989116 0.04257608 
-0.011255165 0.99915606 0.039503697 
-0.0014790111 0.99946064 0.032808345 
0.0085489405 0.99969 0.023386868 
0.016582623 0.9997825 0.012647497 
0.020761253 0.9997844 0.00043049883 
0.021842202 0.99968714 -0.012194544 
0.021832172 0.99949366 -0.023147834 
0.021585163 0.9993244 -0.029747186 
0.047405504 0.99854153 -0.025838898 
0.048076257 0.9985618 -0.023726573 
0.046914767 0.99868995 -0.020432362 
0.04234923 0.9989719 -0.016176078 
0.03335636 0.99937403 -0.011793226 
0.020731376 0.9997482 -0.008598831 
0.0067782747 0.9999533 -0.0068799774 
-0.005662999 0.9999653 -0.0061050565 
-0.014706071 0.9998815 -0.0045547932 
-0.020208515 0.99979544 -0.00087424525 
-0.022616278 0.99972904 0.005523146 
-0.022156445 0.99966234 0.013575767 
-0.0185877 0.99959666 0.021471407 
-0.013348647 0.9995173 0.028055333 
-0.008031942 0.99941534 0.033235323 
-0.00409161 0.9992863 0.037551966 
-0.0017063898 0.9991539 0.04109217 
-0.0013568031 0.99905264 0.043497868 
-0.0041237306 0.9990528 0.04332008 
-0.009841336 0.99911934 0.040789694 
-0.017112112 0.99915695 0.037318733 
-0.022427691 0.9991327 0.035084013 
-0.023792861 0.9991171 0.034625765 
-0.020811968 0.99918115 0.034696642 
-0.014931175 0.99933714 0.03320251 
-0.0072751734 0.9995696 0.028422093 
0.0017259956 0.99978274 0.020776154 
0.010502003 0.99988717 0.010750073 
0.01766179 0.99984384 -0.0006376471 
0.022496963 0.9996696 -0.012431988 
0.02542769 0.9994288 -0.022259671 
0.026651992 0.99924874 -0.028136613 
0.03806384 0.999227 -0.009832821 
0.03774851 0.9992577 -0.0076886592 
0.035892084 0.9993455 -0.004530169 
0.031950235 0.99948883 -0.0011377459 
0.024931867 0.9996879 0.0016065509 
0.014983418 0.9998831 0.0030677377 
0.0034641828 0.9999896 0.0029932926 
-0.007394048 0.99997044 0.00215316 
-0.015912436 0.99987227 0.0015141198 
-0.02168942 0.99976164 0.0025221566 
-0.02548406 0.9996558 0.006236187 
-0.02661353 0.9995675 0.012511726 
-0.02443556 0.999504 0.019865885 
-0.0195034 0.999473 0.025951207 
-0.014467872 0.99944526 0.029997384 
-0.010873882 0.9994239 0.032148182 
-0.008732895 0.9994006 0.033500902 
-0.0077403663 0.9993911 0.03402487 
-0.007825015 0.9994197 0.033152666 
-0.010095525 0.9994969 0.03006838 
-0.0139317475 0.9995667 0.025930353 
-0.018158915 0.99957657 0.02273659 
-0.020505417 0.9995538 0.02172353 
-0.020205317 0.99954057 0.02259456 
-0.017626645 0.9995724 0.023331672 
-0.012901249 0.999675 0.02198923 
-0.0059959763 0.9998331 0.017264102 
0.003104924 0.9999504 0.009467483 
0.012789823 0.9999181 -0.00051463535 
0.021319604 0.9997157 -0.010679123 
0.027304217 0.999443 -0.019190801 
0.029932763 0.9992613 -0.024101015 
0.025338698 0.9996773 0.0018213654 
0.0239451 0.999703 0.004532615 
0.021423342 0.9997366 0.008238506 
0.018245835 0.9997699 0.011284726 
0.01403661 0.9998192 0.012822761 
0.008219333 0.999885 0.012747598 
0.0011266643 0.99993294 0.011527383 
-0.006529165 0.99993366 0.009493793 
-0.013414966 0.9998838 0.0072598774 
-0.01945315 0.99979347 0.005882792 
-0.024418723 0.9996782 0.006874604 
-0.027198445 0.9995674 0.0112005295 
-0.026139311 0.9995114 0.017136114 
-0.022322427 0.9995048 0.022180354 
-0.01832453 0.999536 0.024331313 
-0.015737312 0.99958193 0.024255158 
-0.014146942 0.99963856 0.022863528 
-0.012038754 0.9997007 0.021293618 
-0.009490121 0.9997737 0.01903911 
-0.0073687546 0.9998563 0.015273538 
-0.00778689 0.999914 0.0105612585 
-0.010595677 0.99992085 0.0067931553 
-0.014613924 0.9998764 0.005801213 
-0.01789695 0.99981093 0.0076063047 
-0.019035038 0.9997583 0.011002251 
-0.017583659 0.999754 0.013519842 
-0.012571618 0.99983674 0.012985506 
-0.003776291 0.99995685 0.008496888 
0.00792834 0.9999678 0.0012353425 
0.019641576 0.99978435 -0.0067518307 
0.028352015 0.99951047 -0.013235124 
0.03234284 0.99933034 -0.017113322 
0.011969955 0.99990696 0.00654306 
0.009928595 0.99990183 0.009884217 
0.00705359 0.99987066 0.014456461 
0.004902827 0.99982923 0.017821237 
0.0034478859 0.99981076 0.01914955 
0.0021047413 0.99982 0.018855497 
-0.00024166804 0.9998454 0.017583221 
-0.00386985 0.9998711 0.015590515 
-0.008688398 0.99988 0.01282953 
-0.014180213 0.99985 0.009947306 
-0.019721357 0.9997657 0.008923648 
-0.023275618 0.99967104 0.010770393 
-0.023464171 0.9996146 0.014835324 
-0.02130258 0.9996112 0.017990856 
-0.019037306 0.9996442 0.018686814 
-0.017735565 0.99970424 0.016641099 
-0.01631886 0.99977887 0.013267504 
-0.013549985 0.99986213 0.009599224 
-0.00845476 0.9999483 0.005654105 
-0.0032111646 0.9999946 0.0007094259 
-0.0005227485 0.99998724 -0.0050171115 
-0.0023934653 0.9999537 -0.009329585 
-0.007882521 0.9999117 -0.010704657 
-0.014046176 0.99986494 -0.008534173 
-0.01815165 0.999829 -0.0035519677 
-0.01863185 0.99982363 0.0023754651 
-0.015139234 0.9998651 0.006380868 
-0.006811905 0.99995625 0.0064157625 
0.00552508 0.9999796 0.0032188247 
0.018859083 0.9998217 -0.0008821931 
0.029045051 0.9995682 -0.004461318 
0.033772323 0.99940854 -0.0064872303 
-0.00163951 0.9999921 0.003628928 
-0.0037465177 0.9999645 0.0075507513 
-0.0061682984 0.999896 0.013036291 
-0.0071708043 0.99982184 0.01746026 
-0.006094002 0.9997893 0.019605618 
-0.0038432607 0.99979085 0.020086491 
-0.0019247255 0.9998056 0.019622384 
-0.0019543113 0.9998268 0.018511074 
-0.0042193267 0.9998569 0.016384913 
-0.008323584 0.99987143 0.013708522 
-0.013032966 0.9998483 0.011559027 
-0.016278671 0.9998015 0.011489047 
-0.017176626 0.99976635 0.013126216 
-0.016394814 0.9997534 0.014979367 
-0.015596226 0.9997681 0.014855745 
-0.014885546 0.9998125 0.012389655 
-0.013797897 0.9998718 0.008127292 
-0.010685681 0.9999386 0.0029474534 
-0.005076513 0.99998367 -0.0026530123 
0.0014796332 0.9999557 -0.009302024 
0.0054483525 0.99985504 -0.016135117 
0.004307424 0.9997561 -0.021662476 
-0.0014409233 0.9997036 -0.024304383 
-0.008568987 0.9996857 -0.023560656 
-0.0131765865 0.9997323 -0.019018 
-0.013980593 0.99983865 -0.011281222 
-0.010964117 0.9999339 -0.0034863781 
-0.003754403 0.9999918 0.0015902218 
0.0075847907 0.9999641 0.0037699959 
0.020089976 0.99978644 0.004840549 
0.029802142 0.9995387 0.005849185 
0.03414872 0.9993957 0.0064947223 
-0.015136662 0.9998755 -0.004464718 
-0.016932985 0.99985665 -0.00021591825 
-0.018617762 0.99980706 0.0062718396 
-0.018356202 0.9997584 0.012097007 
-0.015340132 0.9997571 0.015828203 
-0.010146681 0.99979633 0.0174484 
-0.0048661674 0.99982697 0.017956845 
-0.0015918774 0.9998394 0.01785177 
-0.0011210117 0.99985 0.017287707 
-0.0031006227 0.9998689 0.01589623 
-0.005896689 0.99988353 0.014078188 
-0.008156066 0.9998882 0.012541265 
-0.008844378 0.99988127 0.012620476 
-0.008763536 0.9998666 0.013786622 
-0.008115356 0.99986374 0.014378737 
-0.007328482 0.9998903 0.012876899 
-0.0059989775 0.99994373 0.0087574925 
-0.003551736 0.9999898 0.0028090621 
0.0008459686 0.9999892 -0.004585628 
0.0061662444 0.99990225 -0.012555194 
0.009619067 0.9997384 -0.020750517 
0.009052197 0.99957585 -0.027680747 
0.0044854903 0.99945426 -0.032727886 
-0.0008973239 0.9993811 -0.03516728 
-0.003816881 0.9994445 -0.033109687 
-0.0034083722 0.99965817 -0.025920613 
-0.0006838092 0.9998751 -0.015789123 
0.0048008612 0.9999681 -0.006383194 
0.013487189 0.9999081 0.0014247736 
0.023555502 0.99968624 0.008514541 
0.031047255 0.99940777 0.014837522 
0.034221742 0.99923676 0.01883559 
-0.027890604 0.9995159 -0.013786734 
-0.029384306 0.9995224 -0.009567794 
-0.030253585 0.9995385 -0.0027353833 
-0.028803831 0.9995754 0.0044259685 
-0.023953862 0.99966663 0.009641271 
-0.016194737 0.9997901 0.0125540905 
-0.0077739567 0.999875 0.0137660215 
-0.0011823163 0.9998926 0.014614588 
0.0022061598 0.9998772 0.015518714 
0.0030810647 0.99986666 0.01604017 
0.0024185048 0.9998834 0.015076614 
0.0018001993 0.999912 0.013146888 
0.001267535 0.9999219 0.012431787 