# OOMMF OVF 2.0
# Segment count: 1
# Begin: Segment
# Begin: Header
# Title: m
# meshtype: rectangular
# meshunit: m
# xmin: 0
# ymin: 0
# zmin: 0
# xmax: 1.6e-07
# ymax: 1.6e-07
# zmax: 5e-09
# valuedim: 3
# valuelabels: m_x m_y m_z
# valueunits: 1 1 1
# Desc: Total simulation time:  8.224401908243216e-11  s
# xbase: 2.5e-09
# ybase: 2.5e-09
# zbase: 2.5e-09
# xnodes: 32
# ynodes: 32
# znodes: 1
# xstepsize: 5e-09
# ystepsize: 5e-09
# zstepsize: 5e-09
# End: Header
# Begin: Data Text
0.10012971 0.9947027 0.023250727 
0.089901336 0.9956816 0.023149375 
0.08150485 0.9963087 0.026943423 
0.079017065 0.9961385 0.038268037 
0.083550364 0.9948392 0.057571508 
0.09115697 0.9923838 0.0828543 
0.09342932 0.9893389 0.11171272 
0.082957245 0.9863872 0.14198036 
0.060750283 0.9834956 0.1704286 
0.035007276 0.98097014 0.19097672 
0.009636153 0.9803606 0.19697794 
-0.020063234 0.9817439 0.18914713 
-0.058098827 0.9825803 0.17652361 
-0.10060028 0.9812055 0.1646673 
-0.1388181 0.97914577 0.14833494 
-0.16512305 0.9791165 0.11859724 
-0.17488551 0.98188734 0.072885856 
-0.16750874 0.9857124 0.0176621 
-0.1492337 0.9881828 -0.034986984 
-0.12933783 0.98888737 -0.07330473 
-0.11128104 0.98945504 -0.09271028 
-0.0915777 0.9910222 -0.09740939 
-0.06635696 0.99330044 -0.09460964 
-0.03613098 0.99546665 -0.08798168 
-0.0057932218 0.9969634 -0.07765704 
0.017308408 0.997759 -0.064633496 
0.027761377 0.998246 -0.052289296 
0.026281301 0.99874926 -0.042537197 
0.01676369 0.9992843 -0.033908766 
0.0019094072 0.9996754 -0.025407845 
-0.016234161 0.9996937 -0.018680513 
-0.033546586 0.9993187 -0.015384493 
0.08340443 0.99627304 0.021994123 
0.07896976 0.9966472 0.02140898 
0.07301359 0.99704283 0.023974821 
0.07016874 0.9969965 0.03277748 
0.072188586 0.99622965 0.048117757 
0.07641577 0.9947377 0.068246305 
0.07620226 0.9929101 0.09122902 
0.065705575 0.99113184 0.1155012 
0.045884818 0.9892584 0.13878876 
0.023400383 0.98748815 0.15594731 
0.0011981553 0.9869412 0.16107653 
-0.024713488 0.9877009 0.15438986 
-0.057478745 0.98795146 0.14369456 
-0.093631014 0.9865516 0.13397533 
-0.12588666 0.98461944 0.1211492 
-0.14805435 0.98415226 0.09759318 
-0.1560507 0.98587584 0.06080293 
-0.1491268 0.98869365 0.01568811 
-0.1323376 0.9908134 -0.027852815 
-0.113707356 0.991711 -0.05983269 
-0.096605346 0.9924132 -0.07604914 
-0.07852639 0.9937018 -0.07994047 
-0.05633023 0.9953878 -0.07765342 
-0.030158935 0.9969207 -0.07238512 
-0.003852729 0.997934 -0.06413286 
0.016391505 0.99843466 -0.053475317 
0.025731465 0.9987476 -0.042909704 
0.024479216 0.9991234 -0.03395964 
0.016163418 0.99953705 -0.025776662 
0.0036045602 0.99983186 -0.017983453 
-0.010372282 0.9998718 -0.012201059 
-0.02076383 0.9997386 -0.009574896 
0.07242593 0.99714345 0.021435406 
0.06987364 0.9973479 0.020370116 
0.06482457 0.997663 0.021596272 
0.06056337 0.9977813 0.027651524 
0.059001137 0.9975069 0.038714502 
0.05855383 0.9968638 0.053235956 
0.054701857 0.9960691 0.06967308 
0.043331053 0.9952458 0.08722481 
0.025432708 0.9942 0.10449755 
0.006074495 0.9930365 0.11765041 
-0.012765227 0.9925087 0.12150576 
-0.034368973 0.9926513 0.11602742 
-0.06092294 0.9923561 0.10732146 
-0.08934054 0.9909807 0.099878356 
-0.114096634 0.9893256 0.090646535 
-0.13055441 0.98869723 0.07371174 
-0.1356457 0.9896535 0.04675644 
-0.12836751 0.9916408 0.013057412 
-0.1126544 0.99343115 -0.020089146 
-0.0950659 0.99446315 -0.04478395 
-0.07878834 0.995241 -0.057340495 
-0.06234262 0.99623555 -0.06023556 
-0.043356396 0.99734926 -0.05843622 
-0.021691574 0.9982766 -0.054529283 
2.217997e-05 0.9988245 -0.048473023 
0.016874611 0.9990437 -0.04033576 
0.024649603 0.9991945 -0.0316685 
0.023410179 0.9994495 -0.023510065 
0.01610395 0.99974793 -0.015643993 
0.0056670913 0.9999468 -0.008618935 
-0.005068655 0.99997926 -0.003970064 
-0.01212754 0.9999241 -0.002176429 
0.065921634 0.9976017 0.021099014 
0.06361121 0.9977819 0.019623565 
0.058174957 0.998112 0.019701272 
0.052061714 0.99836695 0.02351789 
0.046785716 0.9984209 0.03109488 
0.041708812 0.9982927 0.040891342 
0.033934258 0.99809 0.051621526 
0.021005861 0.99780023 0.062877215 
0.004059885 0.99722993 0.074270174 
-0.012972072 0.99646497 0.08300276 
-0.028786682 0.9959506 0.08516917 
-0.046130322 0.9956968 0.08037401 
-0.06646257 0.99507076 0.07359935 
-0.08724338 0.99384385 0.068287596 
-0.104216985 0.992598 0.06235463 
-0.11452852 0.9920975 0.051243126 
-0.11595033 0.9927033 0.033103127 
-0.1077962 0.9941234 0.009938462 
-0.09294548 0.9955806 -0.013436276 
-0.07663326 0.99657094 -0.031203978 
-0.061521705 0.9972916 -0.04030711 
-0.046677165 0.99801666 -0.04223987 
-0.030417066 0.9987102 -0.040655416 
-0.0124696465 0.9992166 -0.037560772 
0.00513297 0.999447 -0.0328554 
0.018598786 0.9994731 -0.026605092 
0.024494816 0.9995078 -0.019604096 
0.022702036 0.9996649 -0.012438965 
0.01580352 0.9998611 -0.0053099925 
0.0065964893 0.99997807 0.0006570756 
-0.0022580654 0.9999896 0.003959577 
-0.0077353097 0.9999581 0.004904119 
0.061998744 0.9978649 0.02053959 
0.059399463 0.99805856 0.018730454 
0.053248838 0.9984204 0.017924152 
0.04535349 0.9987691 0.02008813 
0.03705211 0.9990005 0.025003793 
0.028040905 0.9991243 0.031053696 
0.01679955 0.99917823 0.036887612 
0.0021025003 0.9990892 0.042619552 
-0.014496726 0.99871784 0.04850262 
-0.029659104 0.9981495 0.053084977 
-0.04264451 0.99766886 0.053277675 
-0.055738024 0.99724 0.049048837 
-0.070391856 0.9965427 0.044134352 
-0.084340654 0.99557793 0.041368946 
-0.094674736 0.99475306 0.03877018 
-0.09950809 0.99449474 0.03283869 
-0.097838625 0.9949563 0.022126509 
-0.089112185 0.99599206 0.0076740254 
-0.07562046 0.99710864 -0.0074763084 
-0.06123004 0.9979317 -0.0195748 
-0.04781044 0.9985193 -0.02594861 
-0.03457348 0.99902946 -0.027292833 
-0.02017549 0.99946177 -0.025869042 
-0.004758096 0.99972475 -0.02297571 
0.009888573 0.9997748 -0.018778015 
0.020531354 0.99969846 -0.013469737 
0.024555443 0.99966824 -0.007777106 
0.021935657 0.9997578 -0.0017700505 
0.014875558 0.99987996 0.004361545 
0.005980885 0.99993914 0.009276127 
-0.002084193 0.9999309 0.011572803 
-0.0068532135 0.9999054 0.0119321365 
0.0588535 0.9980695 0.019838452 
0.055911217 0.99827987 0.017645132 
0.04903726 0.9986694 0.015967973 
0.039829366 0.9990697 0.01653201 
0.029356943 0.99938613 0.019122884 
0.01765525 0.99960494 0.02186992 
0.0039415467 0.99971503 0.023543611 
-0.011909536 0.99962926 0.024486924 
-0.027964704 0.9992754 0.025821097 
-0.0413354 0.9987861 0.026789978 
-0.051440172 0.9983517 0.025451234 
-0.060746435 0.9979175 0.021693382 
-0.07040069 0.9973388 0.018952867 
-0.0791562 0.99667895 0.01911635 
-0.08458764 0.9962108 0.020222196 
-0.08588228 0.9961221 0.019106181 
-0.08239213 0.9964953 0.014447133 
-0.07398161 0.9972354 0.006950492 
-0.062186684 0.9980627 -0.0019217845 
-0.04987448 0.99871016 -0.009520671 
-0.038259152 0.99916977 -0.014000589 
-0.026439818 0.99953675 -0.015071677 
-0.01354497 0.99981153 -0.013905818 
0.000102645485 0.99993724 -0.011203171 
0.012479717 0.99989736 -0.0070400345 
0.020883484 0.99977964 -0.0021500103 
0.023261173 0.9997257 0.00275963 
0.01992781 0.9997719 0.0076880474 
0.012695917 0.9998364 0.012887478 
0.0040254467 0.9998447 0.01716529 
-0.0036057362 0.99980974 0.019172894 
-0.0078616245 0.99977785 0.019556118 
0.05473797 0.9983029 0.019880313 
0.05143824 0.9985294 0.017125022 
0.043921195 0.99893445 0.014177785 
0.0336812 0.9993497 0.012882177 
0.021824941 0.9996779 0.012954772 
0.008544782 0.9998829 0.012700633 
-0.0062969043 0.999922 0.010793175 
-0.022213902 0.9997213 0.007999945 
-0.037106354 0.9992955 0.005643309 
-0.048414562 0.9988199 0.0038787534 
-0.056111205 0.9984238 0.0011724443 
-0.06206671 0.99807 -0.0020076751 
-0.06800014 0.9976813 -0.0028449206 
-0.07289791 0.9973394 0.00020950344 
-0.07545697 0.99713725 0.0048570563 
-0.07480884 0.9971662 0.00795501 
-0.070743516 0.99746 0.008313172 
-0.06280784 0.99800736 0.006042341 
-0.052206144 0.9986339 0.0022252053 
-0.041179627 0.99915004 -0.0018680803 
-0.030727245 0.999518 -0.004443354 
-0.02030456 0.99978095 -0.0050865165 
-0.009108853 0.99995047 -0.004017728 
0.0023611127 0.99999636 -0.0013258137 
0.012431276 0.9999186 0.0028830527 
0.018623732 0.9997956 0.007865409 
0.01954923 0.99973255 0.0123602515 
0.015696479 0.99974227 0.016407242 
0.008846699 0.99975175 0.02045335 
0.00095720217 0.9997122 0.023974609 
-0.0056205066 0.9996487 0.025901666 
-0.009181071 0.9996038 0.026607929 
0.04884575 0.99858713 0.02092424 
0.045143344 0.99882674 0.017531782 
0.037018493 0.9992249 0.013386349 
0.025971401 0.9996099 0.010273471 
0.013273595 0.99987835 0.008192403 
-0.00059411663 0.9999853 0.0054028775 
-0.015463212 0.9998801 0.0009465064 
-0.030506238 0.9995243 -0.0045322115 
-0.043715935 0.9990002 -0.009357431 
-0.05322758 0.99849385 -0.013301249 
-0.05880625 0.9981232 -0.017086124 
-0.06252291 0.9978368 -0.02031167 
-0.06565894 0.997638 -0.020184325 
-0.06831489 0.9975432 -0.015510439 
-0.06919069 0.997567 -0.008531387 
-0.06776721 0.9976985 -0.0023105668 
-0.063324675 0.99799174 0.0015647238 
-0.055457547 0.9984558 0.0032605873 
-0.04497449 0.9989837 0.0029933215 
-0.034018997 0.99941915 0.0020195313 
-0.023969956 0.9997119 0.001360118 
-0.014581007 0.9998921 0.0018130324 
-0.005310607 0.9999801 0.0034345065 
0.0038509385 0.999972 0.0064262236 
0.011527032 0.9998724 0.011063386 
0.015704505 0.9997423 0.016394228 
0.015169841 0.9996644 0.020999132 
0.010794032 0.9996455 0.02434046 
0.0042674392 0.9996236 0.027103053 
-0.0025037583 0.9995641 0.029419776 
-0.007879563 0.99949145 0.03090026 
-0.010527841 0.999441 0.031733055 
0.040471263 0.9989671 0.020659765 
0.03635283 0.9991934 0.017062966 
0.027790878 0.99953705 0.012384888 
0.016420044 0.99982905 0.008509705 
0.003659212 0.99997973 0.0052269553 
-0.00983046 0.99995106 0.0011684594 
-0.023769503 0.99970686 -0.00461188 
-0.03727761 0.999242 -0.0112188645 
-0.048738163 0.9986607 -0.017365718 
-0.056355204 0.9981564 -0.022534747 
-0.060309105 0.9978011 -0.027493669 
-0.062146086 0.99757046 -0.03148238 
-0.06373705 0.9974561 -0.031922143 
-0.06496806 0.9975133 -0.027323077 
-0.06506987 0.99769026 -0.019495398 
-0.06299798 0.9979457 -0.011647227 
-0.05819908 0.9982906 -0.005362678 
-0.050093513 0.9987437 -0.001277297 
-0.039430823 0.99922174 0.0010538496 
-0.028214397 0.99959934 0.0022658135 
-0.018017083 0.9998314 0.0035583812 
-0.009168611 0.99994385 0.005333242 
-0.0010860345 0.9999699 0.007690363 
0.00641162 0.9999188 0.011012747 
0.012420162 0.9998001 0.015668588 
0.014996568 0.9996613 0.02126864 
0.013076671 0.9995702 0.026238529 
0.0075500505 0.9995315 0.029660335 
0.00058044423 0.99949414 0.031799108 
-0.0059447708 0.999429 0.033264168 
-0.010487546 0.99935603 0.034316022 
-0.0125468625 0.99930096 0.035217535 
0.027698176 0.9994797 0.016527276 
0.02335393 0.9996381 0.013357734 
0.0149786165 0.9998449 0.009266834 
0.0042310273 0.9999748 0.0057146093 
-0.0074090958 0.9999694 0.002495763 
-0.019317608 0.9998117 -0.0018335423 
-0.031235434 0.99948215 -0.007741024 
-0.042574216 0.9989887 -0.014462601 
-0.051693786 0.9984489 -0.020676592 
-0.057200123 0.99801487 -0.02635498 
-0.059103582 0.997735 -0.032120667 
-0.05951406 0.99753225 -0.037250098 
-0.059791878 0.99745125 -0.03893462 
-0.06003419 0.997571 -0.03532967 
-0.059016693 0.9978678 -0.027872523 
-0.05608481 0.99823827 -0.019360896 
-0.05086267 0.99863434 -0.011934299 
-0.043124758 0.99905115 -0.0060945475 
-0.033190735 0.999447 -0.0020735054 
-0.022324862 0.9997502 0.0010583535 
-0.0121026505 0.999919 0.0039635673 
-0.0031765236 0.9999712 0.006896883 
0.004531835 0.9999429 0.009676556 
0.011137735 0.9998592 0.012552463 
0.015822189 0.99974006 0.016421707 
0.016919201 0.99962765 0.021410443 
0.013327086 0.9995568 0.02662169 
0.0061040097 0.9995091 0.030731859 
-0.002303103 0.9994426 0.033307508 
-0.009301172 0.9993521 0.03477023 
-0.013693122 0.99926376 0.03583881 
-0.01534467 0.9992029 0.036854513 
0.009987996 0.9999118 0.008758221 
0.0058654677 0.9999616 0.0065161875 
-0.0014661795 0.99999267 0.0035402656 
-0.010410292 0.9999454 0.00096700055 
-0.019678954 0.99980485 -0.0017433185 
-0.028644783 0.99957335 -0.0057074334 
-0.037398767 0.9992372 -0.011245477 
-0.04544257 0.99881774 -0.017272685 
-0.051501323 0.99841267 -0.022796996 
-0.054161012 0.9981373 -0.028083822 
-0.054060828 0.99795943 -0.033978257 
-0.052988183 0.99780965 -0.039601915 
-0.052244447 0.9977437 -0.042167127 
-0.051114026 0.99789757 -0.03984878 
-0.048615314 0.998256 -0.033488046 
-0.044430435 0.9986839 -0.02562228 
-0.03898022 0.99908227 -0.017754447 
-0.03231546 0.99941856 -0.010883497 
-0.023904117 0.99970084 -0.005189645 
-0.014045838 0.99990124 -0.0004889813 
-0.0039158068 0.9999851 0.0038028236 
0.0051884702 0.99995816 0.007535197 
0.012572399 0.999867 0.010384296 
0.01790338 0.99975973 0.012650476 
0.020545742 0.9996732 0.015212211 
0.019377166 0.9996319 0.018993149 
0.013751158 0.9996241 0.023722148 
0.0046095797 0.9995918 0.028196793 
-0.005153158 0.99949753 0.0312747 
-0.012779088 0.999375 0.03295929 
-0.016865535 0.99928105 0.033955798 
-0.018099144 0.99922687 0.034902953 
-0.009378733 0.9999553 -0.001244765 
-0.0127409315 0.9999155 -0.00258906 
-0.01816749 0.9998252 -0.0044414876 
-0.024505647 0.9996808 -0.0061525637 
-0.030549003 0.9995003 -0.008131511 
-0.035879083 0.9992916 -0.011359391 
-0.040617727 0.99904966 -0.015809475 
-0.044685714 0.99879336 -0.020374257 
-0.04698094 0.9986 -0.024309827 
-0.046739038 0.99850845 -0.02822283 
-0.044630885 0.99845356 -0.03314462 
-0.042497996 0.9983655 -0.038212404 
-0.040794745 0.99831975 -0.041151635 
-0.038599394 0.99844515 -0.04021524 
-0.034771603 0.9987493 -0.035929453 
-0.029498734 0.9991272 -0.029574987 
-0.023911888 0.99946606 -0.022267785 
-0.018108571 0.9997288 -0.014644045 
-0.011137172 0.999908 -0.0077542574 
-0.0022507496 0.9999959 -0.0018093676 
0.0075031766 0.99996644 0.0032969925 
0.016329385 0.9998378 0.007601539 
0.022729859 0.9996829 0.010833778 
0.025894634 0.99958014 0.013001483 
0.025520923 0.9995651 0.014779183 
0.021379875 0.99962735 0.016972931 
0.013421932 0.9997075 0.020122943 
0.0028394042 0.99971974 0.02350731 
-0.007886677 0.9996305 0.026012613 
-0.01565413 0.99950933 0.02713021 
-0.019366635 0.99943143 0.027602449 
-0.02003829 0.99940485 0.028081512 
-0.0250804 0.9996035 -0.012805241 
-0.02720864 0.99953854 -0.013509498 
-0.030320365 0.99943304 -0.01464212 
-0.033738047 0.9993102 -0.015523451 
-0.0366937 0.9991906 -0.016485676 
-0.03862065 0.9990881 -0.01820883 
-0.039736953 0.99899775 -0.020601837 
-0.040073976 0.9989358 -0.022836072 
-0.03896928 0.9989446 -0.024314186 
-0.036011808 0.99901354 -0.02598355 
-0.032184638 0.9990649 -0.028869042 
-0.028905103 0.99904335 -0.03281864 
-0.026594864 0.99900067 -0.03592352 
-0.023941012 0.99903554 -0.036807813 
-0.019554865 0.9991963 -0.034992956 
-0.013724358 0.9994336 -0.030727906 
-0.0077517806 0.99967754 -0.024184862 
-0.0023711892 0.9998653 -0.01624726 
0.0036652898 0.9999587 -0.008329575 
0.01128267 0.9999352 -0.0015698773 
0.019931128 0.9997929 0.004124331 
0.027608603 0.9995789 0.008932321 
0.032393087 0.9993941 0.012728497 
0.03323098 0.99933225 0.015194738 
0.029901808 0.9994219 0.016181923 
0.022894448 0.9996053 0.016283052 
0.013100892 0.9997798 0.016392987 
0.0016108534 0.99985236 0.017110426 
-0.009300912 0.9997991 0.017761713 
-0.01714304 0.9996928 0.017903335 
-0.020648642 0.9996313 0.017633352 
-0.021124005 0.999621 0.017661288 
-0.033464078 0.999129 -0.024926892 
-0.03438116 0.99908715 -0.025355289 
-0.035328127 0.99903756 -0.025996555 
-0.036407616 0.99900115 -0.025908723 
-0.0370563 0.99899584 -0.0251845 
-0.03683285 0.99902296 -0.02442618 
-0.035778478 0.9990733 -0.02392639 
-0.0338651 0.9991573 -0.023194233 
-0.030554725 0.9992906 -0.022017019 
-0.025578054 0.9994515 -0.021034954 
-0.019942375 0.9995618 -0.021876955 
-0.015271046 0.999578 -0.024711061 
-0.012165208 0.9995223 -0.02841302 
-0.009299906 0.9994721 -0.031130074 
-0.0048359726 0.9994898 -0.031574305 
0.0014515744 0.9995807 -0.028922155 
0.00780556 0.9997037 -0.023057075 
0.013172258 0.9998037 -0.014799024 
0.018074239 0.9998183 -0.006059357 
0.023841659 0.9997145 0.0016232649 
0.030337505 0.99950874 0.007873611 
0.036100827 0.99926347 0.013017822 
0.039233517 0.9990886 0.016819086 
0.038437072 0.9990854 0.018733688 
0.03331728 0.9992786 0.018231 
0.024708278 0.99957603 0.015410392 
0.01396015 0.9998325 0.011838705 
0.0025240607 0.99995553 0.009092729 
-0.008215076 0.99993515 0.007888543 
-0.016234033 0.9998411 0.00736986 
-0.020371547 0.9997671 0.007129847 
-0.02135276 0.9997472 0.0070530423 
-0.035543688 0.99870944 -0.036278516 
-0.035508253 0.998693 -0.036763556 
-0.034921307 0.99869716 -0.037209973 
-0.0342648 0.9987629 -0.036035474 
-0.033564508 0.99889034 -0.033037174 
-0.032539703 0.9990474 -0.029079476 
-0.031018157 0.9992051 -0.025041454 
-0.028739717 0.9993595 -0.021324474 
-0.024613462 0.9995421 -0.017600486 
-0.01822993 0.9997269 -0.014623583 
-0.0106016705 0.99984807 -0.013838608 
-0.003911493 0.99986017 -0.016262589 
0.0005727927 0.99978805 -0.020579576 
0.004037541 0.99969023 -0.02456222 
0.008861873 0.99961805 -0.026179487 
0.015484574 0.99958515 -0.024286069 
0.022191918 0.9995758 -0.018866181 
0.027111836 0.9995754 -0.010680564 
0.030522918 0.9995332 -0.001383299 
0.033694174 0.999407 0.007106777 
0.03747684 0.99919915 0.014018908 
0.041088533 0.99897414 0.01903645 
0.04306366 0.9988314 0.02193989 
0.041873056 0.9988775 0.022148168 
0.036693387 0.99914116 0.019249715 
0.028012738 0.99951684 0.013469136 
0.017540803 0.9998265 0.006274236 
0.0065611857 0.9999783 0.0007089398 
-0.003986775 0.9999902 -0.0019492685 
-0.012928935 0.999914 -0.0022128318 
-0.018841097 0.99982095 -0.0017891445 
-0.021268193 0.99977285 -0.0014315649 
-0.034335162 0.9983247 -0.046570882 
-0.033667207 0.99831486 -0.047264326 
-0.03189915 0.9983523 -0.0476976 
-0.029931044 0.9985166 -0.04548276 
-0.028371619 0.99879223 -0.04011582 
-0.027328974 0.9990915 -0.03270092 
-0.026646154 0.9993292 -0.025120856 
-0.02522762 0.99951226 -0.018410461 
-0.02142563 0.99969065 -0.012633041 
-0.014026059 0.99986905 -0.008078577 
-0.0043647587 0.99996996 -0.006414862 
0.0047029364 0.9999535 -0.008422177 
0.0111661125 0.99985677 -0.012717068 
0.016013445 0.9997329 -0.016668651 
0.021641785 0.9996015 -0.018124271 
0.028649624 0.9994544 -0.016433885 
0.035086587 0.99931574 -0.011709084 
0.038908076 0.99923325 -0.0043706973 
0.04008815 0.99918526 0.0046821455 
0.040406384 0.9990879 0.013806509 
0.041345008 0.99891996 0.021199772 
0.0431657 0.99873084 0.025950778 
0.044698678 0.9986295 0.027225224 
0.044340443 0.9987041 0.02498397 
0.04049358 0.9989919 0.019378647 
0.033143926 0.99939334 0.010697138 
0.023570936 0.9997218 0.00089820824 
0.013179673 0.99988866 -0.006996641 
0.0024282115 0.9999429 -0.010408308 
-0.008035241 0.9999142 -0.010341267 
-0.01646034 0.999824 -0.009003432 
-0.020975202 0.9997463 -0.008213853 
-0.030942915 0.997977 -0.055538025 
-0.029869108 0.99797547 -0.05615001 
-0.027339544 0.9980422 -0.056251727 
-0.024419775 0.99829495 -0.053018708 
-0.022218036 0.998712 -0.04561419 
-0.021504872 0.99914336 -0.035356153 
-0.02188925 0.99945444 -0.024733262 
-0.021972427 0.9996386 -0.015487761 
-0.019015366 0.999788 -0.007900935 
-0.011486816 0.9999314 -0.0023103002 
-0.0005620926 0.9999999 0.00015432773 
0.01033475 0.9999461 -0.0009947796 
0.018815354 0.99981445 -0.0041490807 
0.025514934 0.99965125 -0.006817895 
0.03231037 0.9994492 -0.0075725582 
0.03961168 0.9991969 -0.006054321 
0.045398317 0.99896556 -0.002639875 
0.047710195 0.9988568 0.0030065381 
0.04680331 0.9988416 0.011182271 
0.04455011 0.9987985 0.020422451 
0.043188944 0.99866134 0.028465932 
0.04343342 0.9985139 0.032920267 
0.044762634 0.9984586 0.03281257 
0.045237947 0.99857706 0.028240442 
0.043026846 0.998871 0.020135473 
0.03728257 0.99926007 0.009456823 
0.028885633 0.9995798 -0.0024157895 
0.019167177 0.99974567 -0.011889089 
0.008432557 0.99982554 -0.016670814 
-0.0029461351 0.9998503 -0.017056048 
-0.013263118 0.9997847 -0.01595852 
-0.019388638 0.99969465 -0.0153219225 
-0.024140302 0.9978509 -0.060918 
-0.022950515 0.9978808 -0.060886536 
-0.02027744 0.99799067 -0.06003003 
-0.017091157 0.9982995 -0.055733282 
-0.01478816 0.99878544 -0.047000144 
-0.014341074 0.99928236 -0.03505693 
-0.015749678 0.9996235 -0.02247218 
-0.017103989 0.9997884 -0.011434247 
-0.015674705 0.9998738 -0.0026146541 
-0.009337717 0.9999497 0.0036549182 
0.0009949688 0.9999759 0.0068801017 
0.012211352 0.9999006 0.0070529105 
0.021971364 0.9997429 0.0056151915 
0.030077191 0.99953896 0.0041543785 
0.037843257 0.99927664 0.0037434346 
0.045128886 0.9989717 0.0043667736 
0.05033974 0.9987144 0.0059668296 
0.051841784 0.9986103 0.009478003 
0.049887378 0.9986269 0.015989898 
0.046436764 0.99860954 0.024954453 
0.043492492 0.9985013 0.033219766 
0.04259911 0.9983729 0.03790694 
0.043210782 0.9983747 0.037160296 
0.043973148 0.9985373 0.031460736 
0.04272776 0.9988365 0.022361381 
0.038253658 0.99920946 0.010823624 
0.030972896 0.99951893 -0.0016145817 
0.021908024 0.9996803 -0.012624541 
0.011696908 0.99974704 -0.019212488 
0.0004038227 0.9997629 -0.02177089 
-0.010280145 0.9996967 -0.02238199 
-0.016939485 0.99959475 -0.022880426 
-0.012970182 0.9980938 -0.060338967 
-0.011894869 0.99816865 -0.05931273 
-0.009772566 0.99831486 -0.057201657 
-0.007304177 0.99861693 -0.052066576 
-0.005545367 0.99905944 -0.04300526 
-0.005666516 0.9995131 -0.030686472 
-0.0076545747 0.999817 -0.017533783 
-0.010185363 0.99993205 -0.0056894696 
-0.01068417 0.99993664 0.003556582 
-0.007012755 0.9999239 0.010152479 
0.0009184259 0.9999007 0.01406471 
0.0110756485 0.9998177 0.01554955 
0.020882381 0.99966496 0.015294766 
0.029624745 0.99945885 0.014298371 
0.037357528 0.99921304 0.013337765 
0.044251215 0.9989387 0.0127856275 
0.04901482 0.9987169 0.012734269 
0.050477896 0.9986265 0.014045462 
0.048760284 0.9986382 0.018554432 
0.044959474 0.9986521 0.025936542 
0.041403245 0.99857163 0.03377293 
0.03927004 0.99848956 0.038426552 
0.039077874 0.9985135 0.037997223 
0.03947312 0.998683 0.03277683 
0.0388282 0.9989504 0.02430216 
0.03565758 0.99926734 0.013906263 
0.029489145 0.9995632 0.0019617165 
0.021392569 0.9997273 -0.009372807 
0.011836032 0.9997652 -0.018152682 
0.001488324 0.99972236 -0.023519972 
-0.008238844 0.9996063 -0.026819883 
-0.014309458 0.9994795 -0.028915145 
0.0006196403 0.9986129 -0.052650847 
0.0016931425 0.9987054 -0.050839793 
0.0031713105 0.9988494 -0.04785175 
0.004473861 0.9990818 -0.042610347 
0.0049942727 0.9994003 -0.034267634 
0.003972581 0.9997245 -0.023136277 
0.0012055999 0.9999408 -0.010816475 
-0.0024218278 0.999997 0.0003295023 
-0.0051330486 0.99994457 0.009202108 
-0.0047655636 0.99986565 0.015688105 
0.000117897005 0.9997968 0.020159943 
0.00838033 0.99971163 0.022505514 
0.017658832 0.99958783 0.022636116 
0.025818435 0.9994395 0.021312742 
0.03276422 0.9992705 0.019623592 
0.03847212 0.9990908 0.01836986 
0.042549714 0.9989433 0.01737471 
0.04418268 0.9988749 0.017232586 
0.04274338 0.9989028 0.019137902 
0.03922464 0.99894464 0.023896448 
0.03488113 0.99894947 0.029718293 
0.03182703 0.9989185 0.033896636 
0.030487895 0.9989448 0.034348264 
0.030612849 0.99905324 0.030911485 
0.03082877 0.99921626 0.024832467 
0.029381638 0.9994292 0.016676854 
0.025399495 0.99965405 0.006836578 
0.018717235 0.999816 -0.0042029084 
0.010510416 0.9998409 -0.014414576 
0.0017172605 0.99974036 -0.022723649 
-0.0060893265 0.99957067 -0.028660228 
-0.010776358 0.9994193 -0.032328084 
0.012282862 0.99915683 -0.039175667 
0.013928566 0.99921805 -0.03700461 
0.015506703 0.9993107 -0.03373287 
0.0161235 0.9994491 -0.029012606 
0.015381108 0.99963164 -0.022360608 
0.013135498 0.99982125 -0.013598213 
0.009373313 0.9999485 -0.003901229 
0.0046685203 0.99997556 0.005206977 
-7.0832386e-05 0.99991924 0.012711177 
-0.0025212732 0.99981827 0.018897463 
-0.0005942921 0.99971604 0.023822036 
0.0057399403 0.9996322 0.026508184 
0.01350114 0.9995568 0.026535593 
0.020388952 0.99948865 0.024632487 
0.0255287 0.99941677 0.022680111 
0.029391944 0.99934137 0.021282732 
0.032194205 0.99927616 0.020268125 
0.033239484 0.99927026 0.01881848 
0.032063063 0.9993265 0.017845117 
0.028254896 0.9994283 0.018569624 
0.02361402 0.9994963 0.021204552 
0.019588226 0.9995125 0.024313875 
0.017809186 0.9995016 0.026065784 
0.018248709 0.9995024 0.025729297 
0.019943332 0.9995339 0.023116717 
0.021359883 0.99960095 0.018485807 
0.020301571 0.9997302 0.0112847695 
0.016296254 0.99986595 0.0016099414 
0.009883944 0.9999054 -0.009572022 
0.0029801268 0.9997937 -0.020089468 
-0.0027387757 0.9995943 -0.028352521 
-0.005950176 0.99943155 -0.03318419 
0.017804462 0.9995499 -0.02414846 
0.020494683 0.99955213 -0.021811001 
0.023267355 0.99955904 -0.01845041 
0.024270264 0.99960107 -0.014444335 
0.023186658 0.9996825 -0.009864406 
0.020199174 0.99978554 -0.0045807157 
0.015964264 0.99987185 0.0012567836 
0.0106832255 0.9999185 0.0069921454 
0.0050266334 0.99990726 0.012656887 
0.0007190354 0.9998281 0.018530898 
0.00049032905 0.99971616 0.023821803 
0.0043981 0.9996262 0.026984934 
0.010114986 0.9995874 0.026885113 
0.014938654 0.9995722 0.025147963 
0.018001523 0.9995646 0.02338128 
0.019603547 0.99955213 0.022612179 
0.02023338 0.99956197 0.021599296 
0.020108908 0.9996178 0.018974258 
0.017926488 0.9997311 0.0147079555 
0.01380064 0.9998446 0.010978197 
0.008391875 0.9999161 0.009869954 
0.004147495 0.99992555 0.011482595 
0.0025380533 0.9998883 0.014733084 
0.004017271 0.9998355 0.017692994 
0.0079599125 0.999785 0.019146929 
0.012476741 0.9997586 0.018084513 
0.015495211 0.9997841 0.013846724 
0.0149477925 0.9998706 0.0059533073 
0.011418541 0.9999226 -0.004960329 
0.006772406 0.9998375 -0.016711863 
0.0031149928 0.9996534 -0.026143553 
0.0013057484 0.99949807 -0.031655148 
0.014766545 0.9998291 -0.0111297 
0.01845877 0.9997919 -0.008685925 
0.022730079 0.9997284 -0.0051611993 
0.02522126 0.9996804 -0.0017711294 
0.025051802 0.99968594 0.0007739719 
0.022901522 0.99973476 0.002474849 
0.019453857 0.9998029 0.003981711 
0.015180823 0.9998662 0.006112307 
0.010018877 0.9999026 0.009719258 
0.0054478436 0.99987465 0.014872163 
0.0035345939 0.99978703 0.02033097 
0.004939537 0.9997089 0.023617232 
0.008118747 0.99967647 0.024108171 
0.011044305 0.99967784 0.022852577 
0.012529573 0.99967885 0.022029804 
0.012215684 0.9996893 0.021727547 
0.011026661 0.9997253 0.020685464 
0.008959846 0.9998191 0.016782563 
0.0055803373 0.9999361 0.009836861 
0.00016199751 0.9999965 0.0026443177 
-0.0058775325 0.9999814 -0.0016721947 
-0.010596789 0.99994296 -0.0013377263 
-0.012112163 0.99992305 0.0027139557 
-0.009855337 0.99991643 0.008373092 
-0.0045176563 0.99990684 0.012879939 
0.002835435 0.9998915 0.014451975 
0.009675831 0.9998744 0.012556459 
0.013702789 0.9998834 0.006752098 
0.014146445 0.9998962 -0.002763527 
0.012984071 0.99981916 -0.013892758 
0.012186596 0.9996547 -0.023278171 
0.012043777 0.9995199 -0.028548392 
0.004467196 0.9999895 -0.0010496095 
0.008588099 0.99996215 0.0014220751 
0.014224971 0.999887 0.0048684985 
0.018638069 0.9997961 0.007776727 
0.020741504 0.9997469 0.008718442 
0.020744959 0.9997552 0.00770555 
0.019658975 0.9997893 0.0059136837 
0.017697949 0.9998301 0.005150963 
0.014722921 0.9998696 0.0066472003 
0.011236787 0.9998816 0.010522056 
0.008554428 0.9998505 0.015028246 
0.007775215 0.99980175 0.018334214 
0.00856986 0.99977905 0.019198805 
0.010196935 0.99976945 0.018896751 
0.0109370565 0.9997675 0.01858584 
0.010068489 0.9997793 0.018439539 
0.0076225023 0.99982697 0.016969448 
0.0042433203 0.9999161 0.012243707 
-0.0007988416 0.99999034 0.0043202317 
-0.007451899 0.9999616 -0.0046008956 
-0.014617977 0.9998374 -0.010558615 
-0.020301757 0.9997258 -0.011671622 
-0.022755027 0.99970996 -0.007891825 
-0.02154776 0.9997664 -0.0016562857 
-0.016556319 0.99985635 0.0036553093 
-0.008294403 0.99994683 0.006127384 
0.0017007187 0.99998355 0.0054857065 
0.010289144 0.99994487 0.0021263368 
0.016058523 0.999861 -0.004493405 
0.019968336 0.99971455 -0.013119203 
0.023505013 0.9995114 -0.020601753 
0.02573964 0.99935865 -0.024894029 
-0.010804542 0.9999201 0.006560009 
-0.006583299 0.9999397 0.008799905 
0.00019129297 0.9999281 0.011989586 
0.0069673946 0.9998756 0.014152591 
0.011962177 0.9998302 0.014024042 
0.014956152 0.99982435 0.011293555 
0.016677115 0.9998323 0.007583389 
0.017706051 0.99983174 0.0047997655 
0.017883763 0.9998305 0.0044008554 
0.016730685 0.99984115 0.0061454587 
0.014756901 0.99984944 0.009130228 
0.012725714 0.9998495 0.011798868 
0.012332474 0.9998369 0.013193891 
0.013414327 0.99982166 0.013296615 
0.014860503 0.9998059 0.012933109 
0.014492006 0.9998207 0.012184417 
0.0120364325 0.99987686 0.010069714 
0.007571599 0.9999545 0.0057961373 
0.0011529443 0.9999985 -0.0013324845 
-0.0067373854 0.9999338 -0.009330784 
-0.015089394 0.99976224 -0.015744718 
-0.0221583 0.9995907 -0.018099882 
-0.02702697 0.99950284 -0.016241465 
-0.028840475 0.999512 -0.011995623 
-0.026887994 0.9996046 -0.008227004 
-0.019949425 0.99977803 -0.0067730374 
-0.008647654 0.99994123 -0.0065490585 
0.003946361 0.99996555 -0.007308261 
0.01526126 0.9998351 -0.009849568 
0.025387354 0.99957323 -0.014452037 
0.03413109 0.9992371 -0.018981893 
0.039425876 0.99898666 -0.021708889 
-0.027774531 0.99952394 0.013435947 
-0.023653569 0.9996014 0.015415067 
-0.015874553 0.9997128 0.017952563 
-0.0067908154 0.99979156 0.019254234 
0.0012316155 0.9998403 0.017831841 
0.0071133836 0.99987894 0.013837961 
0.011366367 0.99989796 0.008661818 
0.015120738 0.99987614 0.004377667 
0.018353922 0.9998297 0.00193498 
0.020309282 0.9997929 0.0013863749 
0.019799277 0.99980104 0.0024071664 
0.01829525 0.9998228 0.00443182 
0.017734397 0.9998249 0.005982063 
0.01984154 0.9997848 0.0060460377 
0.022758426 0.9997295 0.004809007 
0.024029924 0.99970794 0.0025778816 
0.022044003 0.99975705 -5.424282e-06 
0.016950414 0.9998506 -0.003412079 