# OOMMF OVF 2.0
# Segment count: 1
# Begin: Segment
# Begin: Header
# Title: m
# meshtype: rectangular
# meshunit: m
# xmin: 0
# ymin: 0
# zmin: 0
# xmax: 1.6e-07
# ymax: 1.6e-07
# zmax: 5e-09
# valuedim: 3
# valuelabels: m_x m_y m_z
# valueunits: 1 1 1
# Desc: Total simulation time:  9.619108390245835e-12  s
# xbase: 2.5e-09
# ybase: 2.5e-09
# zbase: 2.5e-09
# xnodes: 32
# ynodes: 32
# znodes: 1
# xstepsize: 5e-09
# ystepsize: 5e-09
# zstepsize: 5e-09
# End: Header
# Begin: Data Text
0.495209 0.8583559 0.13413937 
0.49230915 0.85487247 0.16378273 
0.46411395 0.8594326 0.21441533 
0.40395382 0.8724685 0.27499136 
0.31370294 0.88760686 0.33726043 
0.2033401 0.9012748 0.38256577 
0.08818067 0.9159383 0.3915113 
-0.019126378 0.9303803 0.36609676 
-0.11151229 0.942072 0.31633112 
-0.18283916 0.9534871 0.23965012 
-0.22582541 0.9635023 0.14375754 
-0.24007156 0.9688388 0.060968522 
-0.232214 0.97255105 0.014873647 
-0.20523989 0.97870904 -0.0023131175 
-0.16349591 0.986521 -0.0067432174 
-0.12745497 0.99182004 -0.006957268 
-0.11732506 0.9929904 -0.014321625 
-0.12546353 0.9914399 -0.036137052 
-0.12273732 0.99077255 -0.05749166 
-0.09380694 0.9941179 -0.054130055 
-0.052714948 0.9983724 -0.021765377 
-0.021734528 0.9995634 0.020016981 
-0.009940756 0.9988271 0.047389682 
-0.013670563 0.9985503 0.052063834 
-0.022176879 0.99877506 0.04423472 
-0.027453184 0.9988467 0.039392192 
-0.030291516 0.99865544 0.04207097 
-0.02973689 0.99847656 0.046479467 
-0.020444898 0.99870247 0.04664298 
-0.0026924997 0.99912256 0.041794937 
0.013870209 0.99923223 0.036642954 
0.017607236 0.9992486 0.03453057 
0.40683487 0.9072903 0.106347196 
0.40317097 0.90646255 0.12561414 
0.37813428 0.91170794 0.16063364 
0.32787848 0.92211735 0.20541535 
0.25413325 0.933013 0.2547609 
0.16403294 0.94162685 0.29399332 
0.06882694 0.94953513 0.30601633 
-0.020520754 0.95657676 0.29075748 
-0.09750077 0.96188134 0.2554954 
-0.1569248 0.96774006 0.19711374 
-0.19266069 0.97373813 0.1213095 
-0.20409225 0.97740763 0.05496173 
-0.19624555 0.9803886 0.018053114 
-0.17120068 0.9852268 0.0042984462 
-0.13267751 0.99115914 0.00047041127 
-0.098574154 0.9951297 -0.0002817914 
-0.08670481 0.9962061 -0.007471385 
-0.091375 0.99543613 -0.02752284 
-0.08845159 0.9949197 -0.048073374 
-0.06493113 0.9967222 -0.048256624 
-0.032397848 0.99919015 -0.023863168 
-0.009005463 0.99991894 0.009009331 
-0.0016364438 0.9995289 0.030647589 
-0.0069802017 0.9993984 0.033973336 
-0.016026953 0.9995086 0.026937773 
-0.02201924 0.9995089 0.022297705 
-0.025738725 0.99937695 0.024152461 
-0.026388487 0.9992646 0.027819108 
-0.019270692 0.99941903 0.02811091 
-0.0044183973 0.9997014 0.024037186 
0.010644694 0.9997556 0.019374542 
0.017901976 0.9996911 0.017237743 
0.30423027 0.9503019 0.06610853 
0.29950595 0.95113045 0.07514757 
0.2791205 0.9556972 0.093459815 
0.24166717 0.96277773 0.12106272 
0.18760914 0.96957844 0.15722726 
0.12070069 0.97413903 0.19100924 
0.04840811 0.97696453 0.20783906 
-0.020635078 0.978473 0.20534079 
-0.080260135 0.9790007 0.18739258 
-0.12553526 0.98059815 0.15056005 
-0.1516519 0.9834895 0.0987438 
-0.15849814 0.9859528 0.052682985 
-0.14962755 0.9883579 0.027573597 
-0.12588225 0.9918777 0.018232042 
-0.09029462 0.995804 0.014876081 
-0.05812167 0.9982257 0.0129342945 
-0.04471479 0.99898636 0.005193283 
-0.046495415 0.99882436 -0.0137186535 
-0.044452645 0.99842227 -0.03430724 
-0.027799767 0.9988257 -0.039679706 
-0.0052315015 0.99965 -0.025935007 
0.009630176 0.99993974 -0.0052746856 
0.012191852 0.9998981 0.007435409 
0.0052499115 0.9999629 0.0068377797 
-0.0042946236 0.99999005 -0.0012424713 
-0.011320921 0.9999138 -0.006655513 
-0.01674259 0.999845 -0.0054548625 
-0.01985948 0.9998021 -0.001169109 
-0.016457649 0.9998636 0.0014331411 
-0.0062037124 0.9999806 0.000486574 
0.0051254025 0.99998504 -0.0019351796 
0.011469697 0.9999284 -0.0034236624 
0.21778674 0.97572136 0.0231704 
0.21294291 0.97673887 0.025227629 
0.19701813 0.9799017 0.031252153 
0.17015518 0.9843717 0.045382764 
0.13255034 0.98868215 0.07027106 
0.08578805 0.9914035 0.09879098 
0.033755664 0.99232113 0.118993394 
-0.017271046 0.9917563 0.12696962 
-0.061107557 0.9903872 0.12409319 
-0.092530034 0.98993045 0.10712629 
-0.10834126 0.990998 0.07864476 
-0.10997649 0.9925185 0.053030178 
-0.09987961 0.9942041 0.039778497 
-0.077305704 0.996412 0.034451813 
-0.044628184 0.9985199 0.031087251 
-0.015016315 0.99949974 0.027837045 
-0.0019426866 0.9998012 0.019843176 
-0.003510546 0.9999908 0.0024643536 
-0.004332691 0.9998316 -0.017832175 
0.0052586524 0.9995915 -0.028090606 
0.019240694 0.9995035 -0.0249532 
0.027477575 0.99947333 -0.01726802 
0.026908388 0.9995199 -0.015358857 
0.019733505 0.99955285 -0.022466466 
0.010747889 0.99936795 -0.033885863 
0.0031722197 0.9991492 -0.04112056 
-0.004228989 0.99918526 -0.040136296 
-0.010702482 0.9993756 -0.033674657 
-0.012128279 0.9995722 -0.026613923 
-0.0075629544 0.99972576 -0.022162901 
-0.0012157777 0.99979025 -0.020446703 
0.0025676482 0.9997913 -0.020264031 
0.15574405 0.98767555 -0.015519714 
0.15077017 0.9884144 -0.017476168 
0.13765687 0.99029416 -0.019185785 
0.11810402 0.9928964 -0.014435276 
0.09264279 0.99569863 0.0013033714 
0.061741147 0.9978077 0.023831401 
0.026516335 0.9986639 0.044354696 
-0.009121101 0.9982165 0.05899673 
-0.039377086 0.9969293 0.06768744 
-0.05900377 0.9959725 0.06750902 
-0.066421285 0.99600935 0.059611727 
-0.0644557 0.99657327 0.051838603 
-0.054223545 0.997364 0.04821872 
-0.033211067 0.9984005 0.045753576 
-0.00340087 0.999084 0.042659007 
0.023077825 0.9989472 0.039649744 
0.033774525 0.99887156 0.03339104 
0.02974478 0.9993785 0.018919867 
0.024689257 0.9996952 -0.00024662304 
0.028126055 0.99950486 -0.014110917 
0.03590271 0.9991646 -0.019526007 
0.039874315 0.99894476 -0.022793354 
0.037908006 0.9988103 -0.030675216 
0.03190888 0.9985008 -0.0444741 
0.024770085 0.99789953 -0.05985858 
0.017661728 0.99744093 -0.06928074 
0.008943931 0.99759537 -0.06872801 
-0.00047017465 0.9981667 -0.060524195 
-0.0063827555 0.99874073 -0.04976209 
-0.0071268356 0.9991466 -0.04068526 
-0.0054235924 0.99936587 -0.03519189 
-0.004153723 0.99943584 -0.033329334 
0.11957199 0.99173176 -0.046590034 
0.114349276 0.9921796 -0.05004107 
0.10272889 0.9931768 -0.055196237 
0.08773818 0.9945983 -0.05546434 
0.07060056 0.99643934 -0.046088345 
0.051372033 0.99825656 -0.029065583 
0.029420167 0.9995154 -0.010178415 
0.006484578 0.9999482 0.007845276 
-0.013291641 0.9996091 0.024595471 
-0.02542293 0.9989857 0.03716545 
-0.029121468 0.9985852 0.044492763 
-0.027135689 0.99845624 0.04846576 
-0.0187004 0.99857557 0.049972218 
9.2113456e-05 0.9987987 0.049003277 
0.026987199 0.99850804 0.04747038 
0.0497151 0.9976424 0.047310296 
0.056152694 0.9974094 0.044959184 
0.04747814 0.99829495 0.033958014 
0.037427574 0.9991749 0.015772184 
0.03586299 0.99935645 -0.0007169242 
0.03942282 0.99915093 -0.0119754365 
0.040826 0.9989112 -0.022576679 
0.038766094 0.9985652 -0.036943156 
0.03527495 0.9978646 -0.054972295 
0.031579345 0.99686587 -0.072535284 
0.02673669 0.9961879 -0.08303496 
0.018482229 0.99638015 -0.08297677 
0.007876971 0.9971801 -0.07463248 
-0.00085716974 0.9980158 -0.06295846 
-0.005487634 0.99862385 -0.05215804 
-0.0073317965 0.99897057 -0.04476865 
-0.008024919 0.9990914 -0.041857805 
0.10443178 0.9920395 -0.07036799 
0.099684976 0.9923389 -0.072982065 
0.08983124 0.9929413 -0.07744675 
0.07847463 0.9938492 -0.07813744 
0.06718174 0.9952012 -0.071142636 
0.055849914 0.9967922 -0.0573254 
0.043275375 0.99825144 -0.040265717 
0.029390791 0.9993459 -0.021075124 
0.016049031 0.9998713 0.000117857024 
0.0066698072 0.9997786 0.019957595 
0.00211571 0.99939126 0.034825157 
0.0011979208 0.9990786 0.042902816 
0.006709866 0.9989499 0.045324337 
0.022768212 0.9986899 0.045827337 
0.045816585 0.99778306 0.04826947 
0.06281897 0.9965951 0.05340386 
0.062266048 0.99652207 0.05537871 
0.046842996 0.9978314 0.046240535 
0.03143325 0.9991277 0.027490648 
0.025922308 0.9996268 0.008629899 
0.026734201 0.9996225 -0.0063334377 
0.027065458 0.99941313 -0.021000566 
0.02641815 0.9989197 -0.03823027 
0.026992992 0.9980119 -0.05695398 
0.028509192 0.99688673 -0.07351357 
0.027929708 0.99617845 -0.08275639 
0.022250708 0.99636024 -0.08228742 
0.01250376 0.9971331 -0.07462878 
0.0026564714 0.9979408 -0.064087465 
-0.0047288183 0.9985476 -0.05367013 
-0.009593132 0.9989142 -0.04559022 
-0.012111178 0.9990515 -0.04182643 
0.10239432 0.9908216 -0.08825014 
0.09929336 0.9911568 -0.08802962 
0.092488684 0.9917971 -0.088229135 
0.08503393 0.99274486 -0.08501129 
0.07789771 0.9940523 -0.07610634 
0.070937365 0.99553496 -0.062273733 
0.06316181 0.996947 -0.045905434 
0.053720832 0.9981861 -0.027176298 
0.04302312 0.9990564 -0.00594583 
0.033452105 0.9993379 0.014308378 
0.026251001 0.99924546 0.028626474 
0.022488903 0.99915177 0.034496505 
0.026088726 0.9990294 0.035491917 
0.03935207 0.99848944 0.038345743 
0.056585934 0.99731046 0.046582237 
0.064778894 0.9962386 0.057553645 
0.054541145 0.9965708 0.06222511 
0.031363808 0.9981309 0.052449364 
0.0111832125 0.99943525 0.031690605 
0.0027434384 0.99993885 0.010722565 
0.0016618619 0.99997866 -0.0063193836 
0.0018238663 0.99974465 -0.02252345 
0.0035056747 0.99921453 -0.039472822 
0.008922173 0.9984223 -0.055436477 
0.016467847 0.9975697 -0.06770175 
0.021163808 0.99710023 -0.073098175 
0.019240106 0.9973109 -0.0707164 
0.01149118 0.99792767 -0.06331213 
0.001418309 0.9985418 -0.053966057 
-0.008312282 0.99900365 -0.043849885 
-0.016303899 0.9992672 -0.03462873 
-0.020807412 0.9993507 -0.029417107 
0.10382894 0.9897941 -0.097608045 
0.102815375 0.9902758 -0.093717635 
0.09937683 0.9911575 -0.087927274 
0.095055155 0.99236256 -0.07862037 
0.09016403 0.9937822 -0.06532635 
0.0844858 0.99520856 -0.049214885 
0.07793485 0.99640745 -0.03314294 
0.070417546 0.9973636 -0.017530387 
0.061733756 0.99809116 -0.0017633117 
0.052904863 0.99852496 0.012209286 
0.04549116 0.99875414 0.020513939 
0.042435203 0.9988601 0.021855341 
0.046490714 0.99867946 0.021861337 
0.05605821 0.99802977 0.028180158 
0.06384176 0.9970642 0.042277213 
0.05926144 0.9965942 0.05734239 
0.03741608 0.9973881 0.061783604 
0.0073171775 0.9987766 0.048905835 
-0.015678793 0.9995567 0.025309486 
-0.025832672 0.9996619 0.002949915 
-0.028370356 0.99949276 -0.014468162 
-0.028131252 0.9991589 -0.029837007 
-0.02415269 0.9987556 -0.043636337 
-0.014630521 0.9984383 -0.053915728 
-0.0024388847 0.9982391 -0.059268627 
0.006108858 0.99826694 -0.058531422 
0.0070818188 0.9985979 -0.05246105 
0.0012917975 0.999032 -0.04396928 
-0.008293244 0.9993628 -0.034716886 
-0.019407384 0.99952155 -0.024086138 
-0.02987479 0.9994666 -0.013196272 
-0.03598494 0.9993328 -0.0062615406 
0.10251774 0.9902932 -0.09385888 
0.10319012 0.9908289 -0.08723516 
0.102002785 0.9918238 -0.0766876 
0.09920756 0.9931089 -0.062390245 
0.09464183 0.99450064 -0.04484862 
0.08849514 0.9957225 -0.026560515 
0.082369246 0.9965337 -0.011663781 
0.077096365 0.9970227 -0.0013918247 
0.07207936 0.99738264 0.005690484 
0.06708959 0.99769056 0.010619809 
0.06364093 0.9978989 0.01214834 
0.064485654 0.99786514 0.010339769 
0.06885831 0.997566 0.010982637 
0.07143302 0.9972356 0.02045739 
0.065726526 0.99713016 0.037572242 
0.04623758 0.9975559 0.05238698 
0.013978365 0.9985186 0.052587498 
-0.019615531 0.99921495 0.034420166 
-0.042304445 0.9990736 0.007885271 
-0.052488953 0.9985146 -0.014614935 
-0.055585403 0.9979857 -0.030573647 
-0.054696865 0.9975803 -0.042917132 
-0.048596147 0.9974942 -0.051417254 
-0.036513593 0.9978609 -0.054224696 
-0.022448484 0.9984443 -0.051040232 
-0.013026736 0.99900997 -0.042538285 
-0.011464574 0.9994449 -0.03128332 
-0.016325943 0.99965423 -0.020613695 
-0.02519818 0.99962085 -0.011102163 
-0.036897294 0.99931884 -0.00065242004 
-0.048971828 0.9987455 0.010451268 
-0.056088224 0.9982653 0.01790576 
0.09387968 0.9926803 -0.07597651 
0.095061585 0.99311936 -0.06839085 
0.094383575 0.9939619 -0.05596132 
0.09160918 0.9950089 -0.03956357 
0.086490445 0.99603826 -0.020668035 
0.08028453 0.9967677 -0.0029365944 
0.075720124 0.9970882 0.009041852 
0.07442774 0.9971363 0.013405568 
0.07586338 0.9970423 0.012303587 
0.07837071 0.9968791 0.009493926 
0.08185808 0.99662215 0.006610386 
0.08668007 0.9962251 0.004695252 
0.08855594 0.99604195 0.007637026 
0.08088857 0.99654645 0.018770143 
0.060387257 0.9975716 0.03470362 
0.027441809 0.9986354 0.04443486 
-0.011714343 0.9992501 0.03690579 
-0.04497309 0.99891037 0.012470516 
-0.06460228 0.9977862 -0.015788158 
-0.0730181 0.9966628 -0.03649165 
-0.075254455 0.9959415 -0.049370695 
-0.0727843 0.9956838 -0.05758654 
-0.064674 0.99608886 -0.06020174 
-0.0513941 0.9971521 -0.055194784 
-0.037503205 0.99837 -0.043020923 
-0.029151147 0.99922794 -0.026340619 
-0.028442655 0.9995473 -0.0098086335 
-0.03335194 0.99944043 0.0025751935 
-0.042319007 0.9990432 0.011037889 
-0.05535021 0.99828845 0.018887114 
-0.069506325 0.997213 0.027115352 
-0.07779127 0.99642736 0.032881297 
0.07635756 0.99569887 -0.052472148 
0.07683529 0.9960127 -0.045332894 
0.07567308 0.9965772 -0.03327836 
0.07306087 0.9971728 -0.017566739 
0.06907543 0.9976113 -0.00064595864 
0.06515404 0.99777925 0.013844648 
0.06423973 0.9976886 0.022155933 
0.06885946 0.9973721 0.022524165 
0.078391366 0.9967782 0.016973702 
0.08903907 0.9959735 0.0104375845 
0.09793307 0.9951692 0.006879297 
0.10293941 0.9946576 0.007744782 
0.09859771 0.9950357 0.013512479 
0.07972687 0.99653345 0.023765454 
0.046847034 0.9983196 0.03410768 
0.005223807 0.9993834 0.0347241 
-0.03541445 0.9992102 0.018028269 
-0.06415526 0.9978821 -0.010746315 
-0.078426264 0.99622124 -0.037318848 
-0.08388545 0.9950217 -0.053805493 
-0.084712125 0.994429 -0.06272928 
-0.080962464 0.9944646 -0.0669725 
-0.07193772 0.9953247 -0.06445074 
-0.058572963 0.99688697 -0.05277845 
-0.04514687 0.998422 -0.03339651 
-0.037360623 0.99923915 -0.011197523 
-0.036995545 0.99928606 0.0076739327 
-0.042275134 0.9989168 0.01944608 
-0.05251834 0.998298 0.025356201 
-0.06808163 0.99724746 0.02936671 
-0.084876314 0.99583286 0.033362646 
-0.094435245 0.9948638 0.036442295 
0.055460133 0.9979698 -0.031311993 
0.054519717 0.9981922 -0.025298946 
0.052602805 0.99850506 -0.014853949 
0.051242184 0.9986848 -0.0016862269 
0.05060729 0.9986553 0.011248612 
0.051078748 0.9984674 0.021305662 
0.055123314 0.9981253 0.026594548 
0.06563376 0.99750876 0.025855953 
0.0813063 0.9964865 0.020103259 
0.0962061 0.99526274 0.014020719 
0.10537203 0.99435127 0.012741593 
0.10599867 0.9942174 0.017209621 
0.093848795 0.9952898 0.024305495 
0.06617603 0.9973388 0.03059575 
0.026444053 0.9991305 0.032232888 
-0.016948786 0.99959654 0.022794139 
-0.05304968 0.99859184 -0.0003527979 
-0.07399015 0.9968501 -0.028557176 
-0.082012296 0.9953941 -0.04964442 
-0.08443664 0.99458295 -0.06062398 
-0.08411188 0.9942855 -0.06573891 
-0.080020025 0.9945643 -0.06662375 
-0.07141286 0.9956333 -0.060122583 
-0.059057422 0.9972839 -0.04401216 
-0.04653516 0.99869275 -0.021149248 
-0.03908374 0.9992344 0.0017995858 
-0.038624045 0.9990806 0.01860398 
-0.04393639 0.9986643 0.027189776 
-0.054759912 0.99804914 0.02998825 
-0.07105453 0.99700075 0.030672124 
-0.08792472 0.9956387 0.031187994 
-0.09703093 0.9947664 0.032012496 
0.033903476 0.99929124 -0.016364645 
0.03185306 0.99942315 -0.011778814 
0.030032486 0.9995416 -0.0038374932 
0.03141282 0.99949163 0.00545815 
0.035885718 0.99926704 0.013327491 
0.042221975 0.9989339 0.018668083 
0.051641572 0.9984282 0.021782178 
0.06635081 0.9975477 0.022273209 
0.08413503 0.9962542 0.01997693 
0.09790485 0.9950354 0.01786823 
0.102052055 0.99457 0.020394713 
0.0948358 0.99510515 0.027784294 
0.07475958 0.9966024 0.034564245 
0.04163324 0.9985076 0.035346538 
0.0005901186 0.9996112 0.027878935 
-0.03866597 0.9991977 0.010434877 
-0.0661011 0.9977029 -0.014818139 
-0.07822429 0.996198 -0.03834887 
-0.08064671 0.9953645 -0.052399613 
-0.08003078 0.9950899 -0.058234975 
-0.07757537 0.99517894 -0.060009196 
-0.07210408 0.9957193 -0.05782751 
-0.06372458 0.996795 -0.048363887 
-0.053366352 0.9981238 -0.030015742 
-0.043388467 0.9990358 -0.0067066033 
-0.037585948 0.9991956 0.013986713 
-0.03743307 0.9989414 0.02673581 
-0.04202966 0.9986257 0.031309582 
-0.051165596 0.99821603 0.03077097 
-0.06427848 0.9975359 0.028117104 
-0.07681834 0.996724 0.025302466 
-0.08278744 0.9962768 0.024059167 
0.013558765 0.99981993 -0.013281326 
0.011784387 0.9998817 -0.009887591 
0.011935882 0.99991953 -0.0043013296 
0.017550815 0.99984497 0.0014539307 
0.02787071 0.9995976 0.005277417 
0.03991723 0.9991743 0.0075751394 
0.053154558 0.99853176 0.010445423 
0.068684794 0.99753714 0.0142184915 
0.08382937 0.99633133 0.017222652 
0.091425814 0.9956162 0.019743059 
0.0865991 0.9959299 0.024987226 
0.070101134 0.9969866 0.033221725 
0.04386275 0.99831647 0.03795273 
0.009595325 0.9994096 0.032989953 
-0.02737634 0.99945706 0.018332211 
-0.05786292 0.99832004 -0.003001353 
-0.075046435 0.99685633 -0.025407841 
-0.0800593 0.9959338 -0.041311204 
-0.0787803 0.9957188 -0.048352335 
-0.074735455 0.99594647 -0.050053965 
-0.06804726 0.99648005 -0.0489617 
-0.059287384 0.99725974 -0.044249468 
-0.050751787 0.9981616 -0.03312986 
-0.04356825 0.9989507 -0.014117054 
-0.037726276 0.9992489 0.008849226 
-0.03418195 0.9990275 0.027850104 
-0.033585597 0.99872285 0.037746496 
-0.03603403 0.998597 0.03880344 
-0.041815594 0.9985407 0.03417584 
-0.049948405 0.9983903 0.0268682 
-0.056743562 0.9981916 0.01984332 
-0.059012204 0.9981247 0.016271453 
0.002516505 0.9998423 -0.017587317 
0.0022283953 0.99989283 -0.0144753335 
0.005172901 0.99994034 -0.009619817 
0.014228181 0.9998865 -0.0049674422 
0.027828552 0.99961054 -0.0021079367 
0.04183815 0.99912447 -4.4605593e-05 
0.05446157 0.99850804 0.0039570923 
0.066203706 0.9977515 0.010448811 
0.0747404 0.9970696 0.016310975 
0.07373051 0.9970865 0.019551223 
0.059681386 0.99795496 0.022892518 
0.03605582 0.99896455 0.027744355 
0.007756856 0.99957013 0.028276721 
-0.02260507 0.99956673 0.018854793 
-0.05079339 0.9987082 0.0014223256 
-0.070220284 0.99736995 -0.017950611 
-0.07870565 0.99635094 -0.03301869 
-0.07980843 0.9960003 -0.04017691 
-0.07635689 0.99623424 -0.041074477 
-0.06841063 0.996895 -0.03899168 
-0.05686341 0.9977775 -0.034735475 
-0.04529301 0.99859005 -0.027683938 
-0.037884966 0.99915683 -0.01582082 
-0.034856938 0.99938864 0.0027393526 
-0.032938283 0.9991481 0.02486417 
-0.030106267 0.9986312 0.042771548 
-0.026992073 0.99834234 0.050834462 
-0.025911646 0.99846923 0.048864905 
-0.028131709 0.99879616 0.04018782 
-0.03215788 0.9990714 0.02867409 
-0.03487639 0.99921966 0.01854 
-0.03489078 0.9992988 0.013584979 
-0.001195411 0.9998253 -0.01865467 
0.00050040666 0.99988455 -0.015188573 
0.0059652184 0.9999355 -0.009666635 
0.016502323 0.9998562 -0.003936159 
0.02996997 0.99955076 0.0003195102 
0.04213521 0.99910605 0.0034498381 
0.05083942 0.998677 0.00772996 
0.05646923 0.99830943 0.013767177 
0.0575803 0.9981814 0.017843891 
0.04911695 0.99865186 0.016792899 
0.028773306 0.99949646 0.013383116 
0.0017015004 0.9999388 0.010934196 
-0.025189826 0.99966407 0.0061073815 
-0.048640717 0.9988029 -0.0051970566 
-0.066306144 0.9975897 -0.020454276 
-0.07574992 0.9965688 -0.033356242 
-0.07860777 0.99612486 -0.03944678 
-0.07784706 0.9962107 -0.038782533 
-0.0723579 0.99679023 -0.034259725 
-0.060607694 0.99778056 -0.027579034 
-0.045781523 0.99877125 -0.018980794 
-0.034002542 0.99938107 -0.009028718 
-0.029538311 0.99955857 0.0032004844 
-0.03071685 0.9993303 0.019886058 
-0.031511787 0.998725 0.039438285 
-0.027921986 0.99808246 0.0552442 
-0.021420535 0.99788743 0.06133517 
-0.016562454 0.9982436 0.056881923 
-0.015430468 0.99884146 0.045580238 
-0.016239248 0.9993443 0.032362655 
-0.016348146 0.9996246 0.021987647 
-0.015337735 0.99973017 0.017447315 
0.0016352998 0.999872 -0.015913855 
0.005108258 0.99991614 -0.011906924 
0.012142505 0.99991405 -0.0049555735 
0.022353314 0.9997449 0.0032490802 
0.033637192 0.9993806 0.010352965 
0.042534407 0.9989819 0.015036204 
0.046748597 0.99873585 0.018479286 
0.046379473 0.9986896 0.021633739 
0.041114483 0.9989299 0.021185864 
0.027523248 0.9995324 0.013318767 
0.0039309105 0.9999921 0.0007514309 
-0.024026757 0.99965465 -0.010652452 
-0.047844473 0.99864674 -0.020386714 
-0.0636956 0.9974915 -0.030882888 
-0.07214358 0.9965621 -0.04073531 
-0.07524337 0.99611634 -0.04572514 
-0.07608783 0.9961166 -0.04429932 
-0.0748306 0.9964594 -0.038330033 
-0.06744714 0.99729156 -0.02933519 
-0.053052254 0.998439 -0.017468082 
-0.037542425 0.99928737 -0.003914924 
-0.027870681 0.9995713 0.008973229 
-0.026698101 0.99942935 0.020697745 
-0.030783452 0.9989646 0.033497628 
-0.033125684 0.99829197 0.048124623 
-0.029121395 0.9977492 0.06040355 
-0.020655468 0.9976888 0.06473344 
-0.012897752 0.9981491 0.0594308 
-0.008358708 0.99880964 0.048056897 
-0.005852802 0.9993338 0.03602549 
-0.003671541 0.9996116 0.027626377 
-0.0020445462 0.99969757 0.024507204 
0.009638062 0.9999469 -0.0036752345 
0.013424644 0.99990976 0.00045400555 
0.019532269 0.9997748 0.008300087 
0.026832005 0.9994709 0.018388163 
0.03421578 0.99903834 0.027418304 
0.03943843 0.99870676 0.032086834 
0.03984168 0.9986787 0.032461982 
0.034914043 0.99893093 0.030299628 
0.02559301 0.9993937 0.023610264 
0.010434877 0.9999097 0.008465785 
-0.012104252 0.99984753 -0.012589213 
-0.037373655 0.9988133 -0.031229362 
-0.056582157 0.99746895 -0.04306144 
-0.06615632 0.9965658 -0.049798165 
-0.06947252 0.9961807 -0.05289234 
-0.07107254 0.9961344 -0.05162383 
-0.07243915 0.99627846 -0.046711113 
-0.07064941 0.9967431 -0.038882975 
-0.06146841 0.99775344 -0.026640186 
-0.04642243 0.99887365 -0.009816575 
-0.03291382 0.99942464 0.008201384 
-0.026453186 0.999377 0.023362622 
-0.027564077 0.99904907 0.033782355 
-0.03272174 0.9985936 0.04171496 
-0.03582842 0.998081 0.050504524 
-0.03267397 0.99773055 0.05887411 
-0.024456726 0.99776614 0.062166266 
-0.015014979 0.9982214 0.057695128 
-0.0070953723 0.99881554 0.048136536 
-0.0011644522 0.9992595 0.038459223 
0.0031762486 0.9994826 0.03200821 
0.0053205006 0.9995411 0.029820183 
0.011621841 0.99985516 0.012439383 
0.014121617 0.99978346 0.01528684 
0.017468778 0.99961525 0.021545375 
0.021083722 0.99931735 0.03033889 
0.025342964 0.99896145 0.03786576 
0.028931763 0.99879813 0.039565813 
0.028522491 0.99897707 0.035091482 
0.022879288 0.99936116 0.027457442 
0.014021599 0.999767 0.016412899 
0.0021379935 0.99999636 -0.0016896165 
-0.015052996 0.9995748 -0.024971811 
-0.035406876 0.9983972 -0.04415402 
-0.051328782 0.9972737 -0.053015336 
-0.059165526 0.99678165 -0.054090064 
-0.06257375 0.9966774 -0.052141666 
-0.06543086 0.9966507 -0.04905451 
-0.06684505 0.9967443 -0.04508454 
-0.0633762 0.99727714 -0.037708 
-0.05345076 0.9982954 -0.023438873 
-0.040660635 0.99916697 -0.0034652825 
-0.03118445 0.99936974 0.016963307 
-0.027651403 0.99907434 0.03295449 
-0.02928548 0.99869907 0.04174411 
-0.033704627 0.9983968 0.045473848 
-0.03704469 0.9981024 0.049187437 
-0.035956196 0.9978927 0.054014042 
-0.029610327 0.997957 0.056614105 
-0.01932453 0.9983691 0.053719494 
-0.008155035 0.99888575 0.046485722 
0.0011573934 0.99926025 0.038441695 
0.007429062 0.9994522 0.032251064 
0.010062907 0.99951106 0.029606787 
0.0062302276 0.9998325 0.017208774 
0.007381098 0.9998111 0.017980525 
0.008839748 0.99973613 0.021202525 
0.010958962 0.99957776 0.026913144 
0.014973665 0.9993916 0.031501494 
0.019809604 0.9993478 0.030193677 
0.021467792 0.9995108 0.022745408 
0.017952625 0.99975264 0.013134212 
0.011749666 0.99992734 0.00272472 
0.004351969 0.9999225 -0.011664316 
-0.0071234093 0.9995281 -0.029883442 
-0.02358765 0.9987381 -0.044338945 
-0.0392422 0.9980338 -0.048873655 
-0.04896511 0.9977285 -0.046262298 
-0.054085277 0.99762875 -0.042564884 
-0.0569942 0.9975731 -0.039996173 
-0.0565961 0.9977087 -0.037072126 
-0.051791836 0.9982116 -0.029852433 
-0.044089522 0.99890685 -0.0155367935 
-0.036688242 0.9993201 0.0036436403 
-0.032221124 0.99922705 0.022521568 
-0.030644631 0.9988561 0.03670695 
-0.03098027 0.99857575 0.0434374 
-0.03274415 0.9984795 0.044346746 
-0.034932237 0.9983982 0.044505905 
-0.035131026 0.99830526 0.046396382 
-0.030496536 0.9983631 0.04838702 
-0.020068487 0.99866915 0.047509786 
-0.00697537 0.9990541 0.042923946 
0.004409089 0.9993465 0.035878867 
0.011880198 0.999515 0.028785096 
0.014874802 0.99958295 0.024755327 
-0.0049986285 0.9999132 0.012188762 
-0.0043473886 0.9999235 0.011582001 
-0.0029592374 0.9999162 0.012607918 
-0.00016239368 0.99987394 0.015877722 
0.0051525375 0.99982035 0.018243076 
0.011847303 0.9998122 0.015338663 
0.015724618 0.9998514 0.007074923 
0.014200277 0.9998967 -0.002257806 
0.0098161865 0.99990153 -0.010029179 
0.005561587 0.9998077 -0.018803392 
-0.00105192 0.99953014 -0.030633517 
-0.0134495245 0.99906975 -0.040973466 
-0.027877187 0.9986532 -0.043757934 
-0.03773111 0.9984909 -0.03990331 
-0.04185913 0.9985297 -0.03444267 
-0.042372704 0.998668 -0.029443145 
-0.039990414 0.99891686 -0.023790138 
-0.036318403 0.99922025 -0.015488474 
-0.033937674 0.9994185 -0.0033039497 
-0.03345698 0.99937457 0.011453762 
-0.033684447 0.9991096 0.025405468 
-0.033073757 0.99882185 0.035512492 
-0.031076187 0.9987326 0.03959012 
-0.02915359 0.9988372 0.03839843 
-0.028759414 0.9989426 0.035867788 
-0.028303176 0.9989823 0.035117608 
-0.024319295 0.99903893 0.03646695 
-0.014845946 0.9991701 0.03793076 
-0.0021923454 0.99932283 0.036730982 
0.009629205 0.9994547 0.03158562 
0.018080402 0.9995357 0.024526147 
0.021780483 0.9995681 0.019728657 
-0.020678455 0.99975896 0.0073736524 
-0.019789482 0.9997813 0.006760137 
-0.0172689 0.99982417 0.007319907 
-0.012937791 0.9998721 0.009403295 
-0.0064201937 0.9999265 0.010287566 
0.0013595575 0.9999783 0.0064480216 
0.0068532065 0.9999744 -0.0020705776 
0.007157161 0.9999107 -0.011292746 
0.0043427576 0.9998313 -0.017846804 
0.0025044295 0.99972427 -0.023349438 
0.00030512566 0.9995071 -0.03139049 
-0.006994945 0.9991644 -0.040268753 
-0.017888302 0.9988794 -0.04381847 
-0.025678026 0.99887043 -0.0399818 
-0.027702369 0.9991093 -0.031830475 
-0.026225243 0.9994081 -0.022261381 
-0.023783837 0.99963677 -0.01268009 
-0.02320431 0.99972373 -0.0037592116 
-0.026289793 0.9996405 0.0052613383 
-0.031124773 0.99940413 0.014919734 
-0.03430051 0.99913216 0.023632847 
-0.033943556 0.9989858 0.029586837 
-0.03000512 0.9990576 0.031362984 
-0.024919415 0.99927014 0.028952936 
-0.021235945 0.9994633 0.024943348 
-0.01832186 0.99957603 0.02263106 
-0.0140199335 0.99961793 0.02381994 
-0.0066790725 0.9995976 0.027571617 
0.0032768038 0.9995442 0.030012965 
0.013913082 0.9995118 0.02797819 
0.022741523 0.99948436 0.022668531 
0.027118087 0.9994635 0.018368391 
-0.03698335 0.9993031 0.005059555 
-0.035338335 0.9993616 0.0052698962 
-0.031091245 0.9994971 0.0062446403 
-0.025116948 0.9996557 0.0075985612 
-0.017850768 0.999814 0.007301102 
-0.009380852 0.999951 0.003189953 
-0.0017710124 0.9999875 -0.004679788 
0.0017606232 0.9999069 -0.013536492 
0.0015449383 0.9997993 -0.019973913 
0.0015348127 0.9997089 -0.024079096 
0.0022716022 0.9995567 -0.02968722 
-0.00047980878 0.99928623 -0.03777425 
-0.0074895932 0.999046 -0.04302289 
-0.013573167 0.99907905 -0.040706698 
-0.0153001435 0.99937934 -0.031734914 
-0.014454298 0.99969614 -0.019969635 
-0.013989299 0.99986315 -0.008829709 
-0.016330604 0.9998666 -0.00034867195 
-0.02231526 0.99973243 0.006088954 
-0.029383432 0.9994977 0.011879227 
-0.03380493 0.999292 0.016511908 
-0.033922166 0.99923676 0.01936937 
-0.02957268 0.99936193 0.020029675 
-0.022739157 0.99957794 0.018081378 
-0.015819745 0.999766 0.014759395 
-0.009316128 0.9998757 0.012721642 
-0.0035818527 0.9998952 0.014029747 
0.0018736869 0.9998206 0.01884768 
0.008373273 0.9996805 0.02385138 
0.016243981 0.99954903 0.025260065 
0.023603408 0.9994534 0.023144854 
0.027493566 0.99940985 0.020594753 
-0.047582697 0.998865 -0.0021308563 
-0.044759504 0.9989972 -0.0010959212 
-0.038620614 0.99925387 0.0003615749 
-0.031372536 0.9995067 0.001462469 
-0.023909442 0.99971336 0.0012910273 
-0.014933649 0.9998881 -0.00087697053 
-0.004700112 0.9999742 -0.0054366398 
0.0030963395 0.99992806 -0.011597108 
0.0061768256 0.99984306 -0.01661103 
0.007315234 0.99979377 -0.0189478 
0.009178352 0.99972355 -0.021647878 
0.00954064 0.9995649 -0.027910301 
0.0059410757 0.99938554 -0.03454484 
0.00080982706 0.99936795 -0.035539877 
-0.002593977 0.99955976 -0.029559465 
-0.004698224 0.999788 -0.020049391 
-0.0072617005 0.99991655 -0.010687049 
-0.011521407 0.9999267 -0.003731849 
-0.018076692 0.9998365 0.0005775914 
-0.02546067 0.99967074 0.0031867726 
-0.03085003 0.99951345 0.0046139136 
-0.032559972 0.9994537 0.005676186 
-0.02967348 0.9995374 0.00667424 
-0.02287204 0.9997165 0.006628876 
-0.0138303805 0.9998904 0.00530229 
-0.0041657276 0.9999829 0.004123848 
0.003630297 0.99998116 0.0049604136 
0.008660039 0.99991953 0.009270065 
0.01264791 0.99979943 0.015527736 
0.017155364 0.99964315 0.020475859 
0.021435767 0.9995111 0.02276251 
0.023616722 0.9994535 0.023133906 
-0.048488032 0.9987285 -0.013792418 
-0.04416523 0.99895287 -0.011944894 
-0.036283508 0.999297 -0.009443137 
-0.028458644 0.9995707 -0.0069721146 
-0.021721372 0.9997539 -0.0045163534 
-0.013347302 0.9999089 -0.0020075827 
-0.0018554968 0.9999981 -0.00071543874 
0.009056659 0.9999568 -0.0021393802 
0.0147870835 0.99987864 -0.004917319 
0.01625483 0.99984944 -0.0060818973 
0.017858526 0.999819 -0.006572454 
0.020506242 0.9997317 -0.010770392 
0.020895494 0.99960405 -0.018849833 
0.017571915 0.99952734 -0.025229536 
0.012378857 0.99958557 -0.025992844 
0.006788848 0.9997268 -0.02237191 
0.001310581 0.99985594 -0.016921636 
-0.0037961383 0.99991995 -0.0120716635 
-0.009497428 0.999906 -0.009894357 
-0.016419262 0.99981135 -0.010381775 
-0.023035642 0.999668 -0.011542994 
-0.027293198 0.99956346 -0.011319225 
-0.02732173 0.9995844 -0.009207143 