# OOMMF OVF 2.0
# Segment count: 1
# Begin: Segment
# Begin: Header
# Title: m
# meshtype: rectangular
# meshunit: m
# xmin: 0
# ymin: 0
# zmin: 0
# xmax: 1.6e-07
# ymax: 1.6e-07
# zmax: 5e-09
# valuedim: 3
# valuelabels: m_x m_y m_z
# valueunits: 1 1 1
# Desc: Total simulation time:  2.3035119905160808e-11  s
# xbase: 2.5e-09
# ybase: 2.5e-09
# zbase: 2.5e-09
# xnodes: 32
# ynodes: 32
# znodes: 1
# xstepsize: 5e-09
# ystepsize: 5e-09
# zstepsize: 5e-09
# End: Header
# Begin: Data Text
-0.3503183 -0.7456895 -0.56676644 
-0.53522456 -0.6257529 -0.5674222 
-0.810645 -0.36142206 -0.46068317 
-0.9740748 -0.06807664 -0.21574041 
-0.9959869 0.089499354 0.00032146682 
-0.98579204 0.11931807 0.11822598 
-0.98120385 0.098570496 0.16590033 
-0.9789003 0.08618004 0.18527594 
-0.9737537 0.100103475 0.20440923 
-0.9643664 0.12779224 0.23166092 
-0.9533277 0.14996101 0.2620651 
-0.9440816 0.16140708 0.28750244 
-0.9366422 0.16951413 0.3065395 
-0.9293114 0.17892742 0.3230562 
-0.9216222 0.18853292 0.33921674 
-0.9138906 0.19721182 0.35484007 
-0.9060844 0.2053324 0.36993197 
-0.8978773 0.21356107 0.38497823 
-0.8891866 0.22219566 0.3999702 
-0.88030714 0.23020628 0.4148064 
-0.8705578 0.23664056 0.43142852 
-0.8573303 0.24540855 0.45250356 
-0.83972204 0.2621939 0.4755222 
-0.8223084 0.28206503 0.49421477 
-0.81105226 0.29028177 0.50786877 
-0.80463207 0.27806112 0.524642 
-0.7867566 0.25764108 0.56092346 
-0.72558475 0.2706505 0.6326731 
-0.58544856 0.36415914 0.72431904 
-0.36899385 0.5272933 0.76537913 
-0.16536748 0.67393124 0.72004884 
-0.058468822 0.7464014 0.66292256 
-0.46204144 -0.683096 -0.565595 
-0.64960164 -0.5429941 -0.53214216 
-0.8816445 -0.27191746 -0.3856992 
-0.9890391 -0.009967269 -0.14731726 
-0.99221617 0.117882274 0.040135898 
-0.9808107 0.13649024 0.13921554 
-0.976888 0.11656622 0.17917064 
-0.974139 0.11011776 0.19730018 
-0.9673044 0.13029388 0.21759085 
-0.95558393 0.16229437 0.24600805 
-0.9425501 0.18690072 0.2768889 
-0.9319472 0.20019205 0.3023205 
-0.92332524 0.21030211 0.3213156 
-0.91469324 0.22170113 0.33791262 
-0.90567416 0.23306899 0.35416532 
-0.89666677 0.24335903 0.36981767 
-0.8876066 0.25302216 0.3848824 
-0.87810403 0.26275244 0.39986807 
-0.8680301 0.27292866 0.4147694 
-0.85776955 0.28258744 0.42939013 
-0.8468095 0.290538 0.44553497 
-0.83224356 0.30039436 0.4659763 
-0.8123696 0.31842798 0.4885276 
-0.79157543 0.34103167 0.507056 
-0.77706647 0.35403907 0.52040756 
-0.7704026 0.34692755 0.53490293 
-0.7591145 0.32617083 0.5633453 
-0.71473783 0.32486334 0.6193657 
-0.6046708 0.38670644 0.6962983 
-0.42323518 0.5154096 0.74513423 
-0.23379081 0.6461998 0.72647625 
-0.1177176 0.7159933 0.6881106 
-0.6937683 -0.49114233 -0.5267493 
-0.83546257 -0.33834413 -0.4330423 
-0.96279687 -0.107699186 -0.24783687 
-0.99638206 0.073463455 -0.04273126 
-0.9839457 0.14816557 0.09948851 
-0.973586 0.14955075 0.17252506 
-0.97003573 0.13328579 0.2031396 
-0.9654901 0.13727218 0.2213261 
-0.955312 0.16586903 0.24467604 
-0.9399238 0.201543 0.27554268 
-0.9241421 0.22704805 0.3072632 
-0.91161424 0.24136208 0.332722 
-0.9011368 0.253251 0.3518756 
-0.89048576 0.2664202 0.368857 
-0.87946296 0.2792296 0.38545528 
-0.86854386 0.290802 0.40132993 
-0.85760707 0.30168954 0.41652548 
-0.8461867 0.3125752 0.4315841 
-0.8340789 0.3239347 0.44651854 
-0.8217457 0.3349727 0.46100685 
-0.8089678 0.3441616 0.47657505 
-0.79272234 0.3542376 0.4960918 
-0.7702143 0.37186864 0.5181541 
-0.7447546 0.39621 0.53699005 
-0.7243013 0.41546816 0.550249 
-0.7142987 0.41764465 0.5615607 
-0.70973885 0.40104812 0.5791644 
-0.6909772 0.38295147 0.61310583 
-0.6322573 0.3950155 0.66649336 
-0.5205262 0.45592213 0.7219333 
-0.3803631 0.54142314 0.74979 
-0.27112204 0.5995536 0.75301284 
-0.92059916 -0.18379411 -0.34455323 
-0.96946347 -0.07855473 -0.23231412 
-0.99575126 0.052690055 -0.075519666 
-0.98814183 0.13876714 0.06572229 
-0.97390926 0.16301435 0.1578836 
-0.96682847 0.15212335 0.20518617 
-0.962959 0.14412686 0.22789808 
-0.95544934 0.16055919 0.24766387 
-0.9413042 0.19613065 0.2747348 
-0.92266417 0.23239525 0.30770668 
-0.9050785 0.2560235 0.33953622 
-0.89142704 0.269605 0.36424044 
-0.8795635 0.2822608 0.38301033 
-0.86724997 0.29627326 0.40012458 
-0.854646 0.30949628 0.41688398 
-0.8422841 0.32136363 0.43276218 
-0.8299561 0.3325483 0.4478667 
-0.817139 0.34363824 0.46281385 
-0.8035175 0.35523143 0.47767174 
-0.7896033 0.3668474 0.49188375 
-0.7757145 0.37646398 0.5064996 
-0.7590954 0.385346 0.5246738 
-0.73577476 0.40035152 0.5462181 
-0.70710665 0.42402098 0.5658679 
-0.680259 0.4483317 0.57986766 
-0.663808 0.46145174 0.5885758 
-0.6617654 0.4545606 0.5961891 
-0.6669298 0.4289558 0.6092632 
-0.66317165 0.39768013 0.6340772 
-0.63415164 0.37877905 0.6740757 
-0.57554674 0.3815507 0.72330153 
-0.50617784 0.39553997 0.766376 
-0.9942599 0.05970238 -0.08878641 
-0.9951411 0.09621735 -0.020894941 
-0.98748386 0.14108534 0.07050302 
-0.9750626 0.16345525 0.15011801 
-0.96620417 0.15990943 0.2021846 
-0.9615587 0.14914374 0.23056705 
-0.9560676 0.15413162 0.24935544 
-0.94500285 0.18161047 0.27200598 
-0.9275349 0.22003527 0.3020985 
-0.9074027 0.2527676 0.33575138 
-0.8899924 0.27200198 0.36596248 
-0.8765416 0.28398684 0.38862094 
-0.86413157 0.2967811 0.4064451 
-0.85105443 0.31065935 0.4233169 
-0.83788544 0.32332137 0.43978563 
-0.82507604 0.3346705 0.45524192 
-0.8123353 0.34541664 0.4698922 
-0.7991672 0.35595775 0.484382 
-0.7851542 0.36693367 0.4988913 
-0.7706823 0.37835088 0.5127373 
-0.75665283 0.38805935 0.5262 
-0.74135315 0.39535266 0.5423023 
-0.7201196 0.40597615 0.5626821 
-0.69146806 0.42594558 0.5834744 
-0.66035277 0.45229158 0.59947205 
-0.6363057 0.4750718 0.60780084 
-0.63045913 0.48168194 0.6086904 
-0.6480693 0.46152326 0.60580736 
-0.68349457 0.41037232 0.60368025 
-0.71946794 0.33371598 0.6090975 
-0.7332682 0.2535429 0.6308993 
-0.71442163 0.20375983 0.6693907 
-0.985968 0.14002435 0.09088722 
-0.982342 0.14596717 0.11703722 
-0.9747556 0.15524855 0.16046646 
-0.96699405 0.15609792 0.20138547 
-0.9614184 0.15049696 0.2302723 
-0.95636946 0.1514072 0.24986668 
-0.94797456 0.17005321 0.26912096 
-0.93356806 0.20383143 0.29479408 
-0.914436 0.23965433 0.32614815 
-0.89506084 0.2656383 0.3581933 
-0.8794271 0.2797867 0.38513315 
-0.8670579 0.29019073 0.40496898 
-0.8548465 0.30278265 0.42137885 
-0.8418608 0.31594887 0.43754634 
-0.82902586 0.32751313 0.45326734 
-0.8166403 0.3379107 0.4678834 
-0.8043443 0.34784034 0.48170266 
-0.7917245 0.35744956 0.49538073 
-0.7782823 0.3673663 0.5092335 
-0.76418287 0.3781564 0.5225153 
-0.75077295 0.38785234 0.5347062 
-0.7376627 0.39393112 0.54833585 
-0.7204776 0.4000203 0.56647676 
-0.69539565 0.41389647 0.5874647 
-0.66389644 0.43803266 0.6061098 
-0.6340795 0.46660697 0.61662084 
-0.62046105 0.48619848 0.6153367 
-0.63717234 0.47983295 0.60313493 
-0.6883667 0.43221873 0.58252746 
-0.7587044 0.3369787 0.55750614 
-0.81346834 0.2156251 0.54016215 
-0.8255792 0.12693806 0.5498233 
-0.9787431 0.11420206 0.17035276 
-0.97653174 0.12203521 0.17746349 
-0.9704987 0.1341245 0.20035723 
-0.9634409 0.14330208 0.22637598 
-0.9566025 0.1519668 0.24863169 
-0.94858474 0.16784525 0.26835617 
-0.9366846 0.19523579 0.29069734 
-0.9201742 0.22802937 0.31824842 
-0.9016084 0.25644755 0.34833443 
-0.88476723 0.274353 0.37671936 
-0.87180203 0.2841041 0.39905638 
-0.8607512 0.29400647 0.41553292 
-0.84891826 0.3065682 0.43052736 
-0.83652276 0.31855416 0.44581726 
-0.8246286 0.3287057 0.4603697 
-0.8131752 0.3380618 0.47377253 
-0.8017739 0.34713542 0.4864727 
-0.7902134 0.355755 0.49900025 
-0.77798486 0.36435127 0.5118474 
-0.7647954 0.37410054 0.5245348 
-0.75207096 0.3840224 0.53564554 
-0.7410988 0.39011887 0.54642475 
-0.72868603 0.39265922 0.5611021 
-0.7094616 0.39950785 0.5805667 
-0.68180823 0.41736865 0.60078365 
-0.65051734 0.44560295 0.6150327 
-0.62973154 0.47339135 0.6159049 
-0.638062 0.4810893 0.60119045 
-0.6865033 0.44854122 0.5722972 
-0.764874 0.36308584 0.53210586 
-0.83572364 0.24163347 0.49313208 
-0.86273986 0.14737688 0.4836941 
-0.9796528 0.06932402 0.18834673 
-0.9770236 0.091096155 0.19268245 
-0.9691853 0.12129889 0.21439797 
-0.9587764 0.14913222 0.24188332 
-0.9477303 0.17337586 0.26785833 
-0.9357145 0.19823223 0.29179153 
-0.92137164 0.22533578 0.31669882 
-0.9051908 0.25062382 0.34324515 
-0.8892871 0.26956776 0.36946133 
-0.8759513 0.28065795 0.3923524 
-0.86536926 0.2887012 0.4096189 
-0.8550277 0.29926282 0.42352018 
-0.8436457 0.3112382 0.43748462 
-0.8322804 0.32159507 0.4515374 
-0.8216023 0.33041108 0.46454078 
-0.81123275 0.3388244 0.47654974 
-0.80086976 0.34705502 0.48801693 
-0.79050016 0.35479763 0.49922746 
-0.7797534 0.36217558 0.51069915 
-0.7679755 0.37045044 0.522475 
-0.75598514 0.38000888 0.5329914 
-0.7460802 0.38719788 0.5417031 
-0.7374236 0.38888076 0.5522484 
-0.72466403 0.3901091 0.56804675 
-0.70369 0.39985844 0.5873106 
-0.6761402 0.4219725 0.6039649 
-0.6530106 0.4500865 0.6090971 
-0.65339005 0.46566927 0.5968532 
-0.6918011 0.44656238 0.5674447 
-0.7629925 0.37822834 0.5242002 
-0.8332468 0.27343747 0.48055354 
-0.86400115 0.18985301 0.4663237 
-0.97998136 0.05595448 0.19106446 
-0.97589546 0.08949123 0.1990463 
-0.96433336 0.1355699 0.22733693 
-0.94867504 0.17702334 0.26206604 
-0.93280345 0.20858918 0.2938849 
-0.9180173 0.2328235 0.3209944 
-0.90384036 0.25253758 0.34539452 
-0.8903282 0.26796305 0.36811888 
-0.8781503 0.27891758 0.38866046 
-0.8678861 0.28663456 0.405727 
-0.858667 0.2951274 0.41903546 
-0.84868073 0.30620804 0.43125138 
-0.838001 0.31696153 0.44417316 
-0.8278851 0.32559752 0.45671934 
-0.81847155 0.33322585 0.46804357 
-0.8092086 0.3407644 0.47860342 
-0.79992056 0.34815684 0.4887883 
-0.79074085 0.3550922 0.49863663 
-0.78148293 0.3614111 0.50859267 
-0.7713436 0.36812007 0.51915 
-0.7604176 0.3766299 0.5290701 
-0.7510591 0.3846281 0.5366298 
-0.74434 0.38739198 0.5439535 
-0.7365194 0.38632518 0.5552405 
-0.7226604 0.38941732 0.5710658 
-0.7019435 0.40315512 0.5871468 
-0.68207335 0.42525634 0.59492266 
-0.67975795 0.44040123 0.58649457 
-0.7101626 0.4267896 0.5599284 
-0.7710063 0.36925423 0.51884544 
-0.8333606 0.27825785 0.47758 
-0.8611596 0.20505986 0.46513942 
-0.9757344 0.075572364 0.20550244 
-0.9695269 0.11445123 0.21660678 
-0.95339096 0.16795997 0.25066954 
-0.9325747 0.21378624 0.29086065 
-0.9134382 0.24390036 0.3257965 
-0.8984958 0.26134124 0.3527127 
-0.88687736 0.27161366 0.3737306 
-0.8772153 0.27890703 0.3907738 
-0.8684239 0.28568316 0.40524706 
-0.8601425 0.29319566 0.41736197 
-0.8514026 0.30324686 0.4279663 
-0.8415572 0.31419256 0.43939108 
-0.83190095 0.322848 0.45134237 
-0.82329494 0.32967782 0.46205848 
-0.8151476 0.33637995 0.47157496 
-0.8069613 0.34310415 0.48072138 
-0.7987637 0.34957254 0.48966897 
-0.7907202 0.35574892 0.49820107 
-0.7828939 0.36127508 0.506515 
-0.77463174 0.36636 0.5154863 
-0.76517963 0.37292233 0.5248135 
-0.7561751 0.3809274 0.53206533 
-0.75008523 0.3855925 0.53729934 
-0.74506825 0.38509402 0.54458785 
-0.7366787 0.38513798 0.5558537 
-0.7231816 0.39205405 0.5685966 
-0.7095651 0.40606856 0.57586956 
-0.7096818 0.4152819 0.5691157 
-0.7372602 0.39956844 0.5447867 
-0.7910493 0.34419218 0.50573987 
-0.84573334 0.25839916 0.46686712 
-0.8692944 0.18963738 0.45647 
-0.9669069 0.10112145 0.23423392 
-0.9588786 0.14180644 0.24585123 
-0.9388539 0.19752441 0.2820241 
-0.914478 0.24260885 0.32383785 
-0.8943317 0.26810378 0.35817772 
-0.88112783 0.27858782 0.38210288 
-0.87295794 0.28219023 0.39788577 
-0.86654943 0.28605193 0.40898216 
-0.85978746 0.29259926 0.4185108 
-0.8521098 0.30198756 0.42744875 
-0.84309846 0.31286916 0.43737632 
-0.8339259 0.32153618 0.44853324 
-0.8260546 0.32751998 0.4586552 
-0.8189972 0.333241 0.4671124 
-0.811907 0.3393426 0.47503012 
-0.8048045 0.3451273 0.48288396 
-0.79782766 0.35048872 0.4905392 
-0.7909282 0.35575458 0.4978668 
-0.78425795 0.3607806 0.50475436 
-0.7777965 0.36496183 0.51169854 
-0.7706409 0.3690777 0.5195136 
-0.7627547 0.37492436 0.5269127 
-0.75647545 0.380514 0.53193414 
-0.75222355 0.3822351 0.53670865 
-0.7466835 0.38277325 0.5440116 
-0.7383064 0.38723093 0.5522282 
-0.7308806 0.3956144 0.55614996 
-0.73543286 0.39862776 0.5479366 
-0.763863 0.37815532 0.5229837 
-0.81442076 0.32070008 0.48360133 
-0.86424583 0.23541401 0.44458905 
-0.88508 0.16761799 0.43420944 
-0.9579716 0.11294868 0.26369134 
-0.9488284 0.1558833 0.27463618 
-0.92604095 0.21383722 0.31100127 
-0.899425 0.258722 0.35227498 
-0.87906015 0.281833 0.38447803 
-0.8675579 0.2889813 0.40476316 
-0.86168265 0.29073057 0.41590723 
-0.85677385 0.2947434 0.42316067 
-0.85060394 0.3025063 0.43007308 
-0.84274304 0.3126159 0.43824145 
-0.8342374 0.32126996 0.4481446 
-0.82699794 0.3266967 0.45754105 
-0.820976 0.33133593 0.46498924 
-0.81499755 0.3366533 0.47163922 
-0.8088961 0.3418768 0.47833815 
-0.8030123 0.34653836 0.48485303 
-0.7973577 0.35083732 0.49105388 
-0.79174733 0.35500413 0.49709997 
-0.78616005 0.3592047 0.5029159 
-0.78089035 0.3631219 0.5082843 
-0.7759094 0.36615336 0.51370853 
-0.7705492 0.3690067 0.51969993 
-0.7652058 0.37246993 0.5250966 
-0.760888 0.37499297 0.5295563 
-0.7561355 0.37703562 0.5348862 
-0.7498527 0.38216105 0.5400685 
-0.7459782 0.38931674 0.5403232 
-0.75382096 0.38945684 0.52922344 
-0.7834001 0.36651462 0.50194746 
-0.8323657 0.30807927 0.46071088 
-0.8792831 0.22394748 0.42036748 
-0.8988456 0.15762989 0.40893683 
-0.9516222 0.1160506 0.28451288 
-0.94152534 0.16228323 0.29528674 
-0.9163014 0.22377846 0.3321368 
-0.8874564 0.27052027 0.3731488 
-0.86625755 0.29376164 0.4041063 
-0.855305 0.3003828 0.42216533 
-0.85021967 0.30212042 0.43110305 
-0.8459209 0.30609357 0.43672025 
-0.84012836 0.3134879 0.44261697 
-0.8329769 0.32155216 0.4502819 
-0.826336 0.3271269 0.45842874 
-0.82104343 0.33110967 0.4650313 
-0.8161335 0.33546975 0.47051704 
-0.8110953 0.3399583 0.47597566 
-0.8062224 0.34393033 0.48137045 
-0.8016376 0.34752145 0.48642164 
-0.7972516 0.3509092 0.49117488 
-0.79299456 0.35404113 0.495797 
-0.78874487 0.35703465 0.50040776 
-0.7845199 0.36018452 0.5047729 
-0.78076637 0.36309406 0.5084945 
-0.77769476 0.36477548 0.51198614 
-0.7747767 0.3653945 0.5159535 
-0.771605 0.36598265 0.5202714 
-0.7675064 0.36777306 0.5250495 
-0.762096 0.37308967 0.5291634 
-0.7593962 0.38053346 0.5277421 
-0.76838136 0.38036007 0.51470035 
-0.7976515 0.357421 0.48580068 
-0.8445966 0.30031466 0.44324672 
-0.8889263 0.21904962 0.40227777 
-0.9074654 0.15547445 0.39030012 
-0.9462439 0.12068416 0.30009636 
-0.9350078 0.16998768 0.3112308 
-0.9071435 0.23500946 0.34908643 
-0.87566125 0.28391233 0.39065483 
-0.85312325 0.30756822 0.42140546 
-0.8421189 0.31373298 0.43864274 
-0.83766186 0.31440884 0.44662035 
-0.83434635 0.3169477 0.45101032 
-0.8296875 0.32249498 0.45564866 
-0.82420325 0.32823628 0.46146494 
-0.81932884 0.3325101 0.46705163 
-0.8151531 0.33616886 0.4717159 
-0.8111753 0.33971617 0.47601226 
-0.80737936 0.3429029 0.48016274 
-0.80385286 0.3457382 0.48403057 
-0.8005292 0.34837553 0.48763463 
-0.7973684 0.3508365 0.49103704 
-0.7944014 0.3530448 0.4942528 
-0.7915777 0.35495466 0.49740532 
-0.78872025 0.35685098 0.5005775 
-0.786001 0.35900813 0.5033046 
-0.78415513 0.36051315 0.50510496 
-0.78329134 0.36006024 0.5067656 
-0.7822265 0.35851663 0.5094974 
-0.7796789 0.3585897 0.5133364 
-0.77562225 0.36261785 0.5166416 
-0.77384853 0.369165 0.51466084 
-0.78303933 0.3686286 0.5009615 
-0.8111422 0.345974 0.47154048 
-0.8553988 0.290632 0.4287495 
-0.89684546 0.21243177 0.3879962 
-0.9140913 0.1515952 0.37610647 
-0.9403239 0.12748608 0.3154969 
-0.92788565 0.17927541 0.3269382 
-0.8972987 0.24721152 0.36570707 
-0.8631578 0.2976445 0.40788046 
-0.8393425 0.3212021 0.43855828 
-0.82847476 0.3262195 0.45520377 
-0.82510287 0.3251805 0.46202046 
-0.82318896 0.32606027 0.46480602 
-0.8200351 0.33000824 0.46758637 
-0.81605625 0.3346678 0.47122154 
-0.8122837 0.33848038 0.47500136 
-0.8090682 0.34131044 0.4784516 
-0.8063393 0.3435518 0.48144484 
-0.80391145 0.34557906 0.484047 
-0.8016592 0.34747067 0.4864223 
-0.799572 0.3491537 0.4886474 
-0.7976645 0.3506229 0.49070862 
-0.7959521 0.3518917 0.49257746 
-0.7944432 0.3528947 0.49429274 
-0.7930352 0.35368496 0.4959862 
-0.791678 0.35457966 0.49751306 
-0.7908819 0.35530603 0.49826053 
-0.7912143 0.35450011 0.49830678 
-0.79185253 0.35202754 0.4990452 
-0.7910963 0.35063672 0.50121915 
-0.7887565 0.35312274 0.5031575 
-0.78836584 0.3580624 0.50027066 
-0.79791635 0.3564249 0.48609748 
-0.8248676 0.33357477 0.45642233 
-0.86642474 0.27949816 0.41374984 
-0.9049718 0.20390984 0.373426 
-0.92089105 0.145368 0.36170137 
-0.9340405 0.13377257 0.33116964 
-0.9204542 0.18785276 0.34274682 
-0.88722855 0.25841418 0.3821617 
-0.85059404 0.31011504 0.42463923 
-0.8256801 0.33344358 0.45504692 
-0.8151794 0.33727822 0.47087792 
-0.81301343 0.33483493 0.47633472 
-0.8124866 0.3344936 0.47747204 
-0.8106459 0.33749014 0.47849095 
-0.8077878 0.34143972 0.48051822 
-0.8050852 0.34434283 0.482976 
-0.80312854 0.34597096 0.4850656 
-0.80175155 0.34709117 0.48654112 
-0.8006073 0.34815577 0.48766336 
-0.7995972 0.34909105 0.48865098 
-0.7987665 0.3497902 0.48950884 
-0.79813117 0.35027382 0.49019876 
-0.79768723 0.35056284 0.49071452 
-0.79743844 0.3506245 0.49107486 
-0.7973432 0.35048383 0.49132973 
-0.79739654 0.35029355 0.49137893 
-0.7979358 0.34983853 0.4908274 
-0.7993931 0.34814912 0.48965585 
-0.80120605 0.3450297 0.48890015 
-0.80186486 0.34276664 0.48941168 
-0.80105454 0.3441007 0.4898024 
-0.80202657 0.34769192 0.4856581 
-0.81208026 0.3448916 0.47071803 
-0.8380139 0.32175964 0.44068536 
-0.8770743 0.26881978 0.39809108 
-0.9129069 0.19570746 0.3581894 
-0.9276248 0.13936204 0.3465408 
-0.92762476 0.1393622 0.34654105 
-0.91290677 0.19570762 0.35818955 
-0.87707424 0.2688199 0.39809135 
-0.83801377 0.32175964 0.4406855 
-0.81208026 0.3448918 0.470718 
-0.80202645 0.34769183 0.48565823 
-0.8010544 0.34410083 0.48980245 
-0.8018648 0.34276676 0.4894118 
-0.80120605 0.34502968 0.48890024 
-0.79939324 0.34814897 0.48965585 
-0.79793584 0.34983855 0.49082732 
-0.79739654 0.3502936 0.4913789 
-0.7973432 0.3504838 0.49132985 
-0.7974384 0.3506245 0.49107474 
-0.7976873 0.3505629 0.49071455 
-0.7981313 0.35027385 0.4901987 
-0.7987665 0.34979016 0.4895089 
-0.79959714 0.34909126 0.48865104 
-0.80060726 0.34815577 0.48766333 
-0.8017515 0.34709117 0.4865412 
-0.8031285 0.3459712 0.48506564 
-0.80508524 0.34434283 0.482976 
-0.8077878 0.3414397 0.48051825 
-0.8106459 0.3374901 0.47849104 
-0.81248665 0.33449364 0.47747207 
-0.81301343 0.33483502 0.47633457 
-0.81517947 0.33727813 0.47087786 
-0.82568014 0.33344364 0.45504698 
-0.85059416 0.31011486 0.42463914 
-0.8872287 0.25841418 0.38216156 
-0.9204544 0.18785256 0.34274662 
-0.9340406 0.13377237 0.3311694 
-0.92089087 0.14536826 0.36170164 
-0.90497154 0.20391005 0.3734263 
-0.8664246 0.2794983 0.41374993 
-0.82486755 0.33357495 0.45642242 
-0.7979163 0.35642496 0.48609766 
-0.78836566 0.35806248 0.5002707 
-0.78875655 0.3531229 0.5031575 
-0.7910962 0.35063702 0.50121915 
-0.7918524 0.35202792 0.49904525 
-0.79121417 0.3545003 0.49830684 
-0.79088193 0.35530594 0.49826056 
-0.7916781 0.35457957 0.49751306 
-0.7930352 0.353685 0.4959861 
-0.79444325 0.35289472 0.49429274 
-0.79595214 0.3518917 0.4925774 
-0.79766446 0.35062298 0.49070874 
-0.79957193 0.34915373 0.48864746 
-0.8016593 0.34747055 0.48642227 
-0.8039114 0.34557924 0.48404709 
-0.8063393 0.3435518 0.48144487 
-0.80906814 0.34131044 0.47845158 
-0.81228364 0.33848053 0.47500136 
-0.81605613 0.3346677 0.47122166 
-0.8200351 0.33000842 0.46758622 
-0.82318896 0.32606038 0.4648059 
-0.8251029 0.32518032 0.4620205 
-0.8284748 0.32621947 0.45520365 
-0.8393426 0.3212022 0.43855807 
-0.8631578 0.2976444 0.40788037 
-0.89729875 0.24721135 0.3657069 
-0.92788565 0.17927527 0.3269381 
-0.940324 0.12748595 0.31549668 
-0.91409117 0.15159535 0.37610668 
-0.8968453 0.21243197 0.38799646 
-0.85539854 0.29063213 0.4287497 
-0.81114197 0.3459743 0.47154054 
-0.78303915 0.3686287 0.5009616 
-0.77384824 0.3691651 0.51466113 
-0.7756222 0.36261794 0.5166416 
-0.7796789 0.3585897 0.5133364 
-0.78222644 0.3585166 0.5094974 
-0.78329134 0.36006027 0.5067656 
-0.7841551 0.36051327 0.505105 
-0.78600115 0.35900816 0.5033045 
-0.78872025 0.35685095 0.5005775 
-0.79157776 0.3549545 0.49740532 
-0.79440147 0.3530448 0.49425265 
-0.7973684 0.35083643 0.49103704 
-0.8005291 0.3483756 0.48763478 
-0.80385286 0.34573835 0.48403063 
-0.8073793 0.3429028 0.48016292 
-0.8111753 0.3397162 0.4760122 
-0.8151532 0.33616877 0.47171602 
-0.8193289 0.3325103 0.4670516 
-0.8242034 0.32823622 0.46146482 
-0.82968754 0.32249498 0.45564857 
-0.8343463 0.3169477 0.45101044 
-0.8376619 0.3144088 0.44662023 
-0.8421189 0.31373292 0.4386427 
-0.85312325 0.30756825 0.4214055 
-0.8756614 0.28391215 0.39065468 
-0.9071436 0.23500927 0.3490863 
-0.9350079 0.16998751 0.3112305 
-0.946244 0.12068397 0.30009618 
-0.90746534 0.15547463 0.3903004 
-0.8889261 0.21904981 0.40227795 
-0.8445965 0.30031484 0.44324684 
-0.79765135 0.35742116 0.4858008 
-0.7683812 0.38036004 0.51470053 
-0.75939614 0.3805336 0.52774215 
-0.7620959 0.3730897 0.5291635 
-0.7675063 0.3677731 0.5250495 
-0.7716049 0.3659828 0.5202715 
-0.77477664 0.3653945 0.5159534 
-0.77769476 0.36477548 0.51198614 
-0.78076637 0.36309397 0.50849456 
-0.78451985 0.36018458 0.50477284 
-0.78874487 0.35703474 0.5004077 
-0.7929945 0.3540411 0.49579695 
-0.7972515 0.35090905 0.4911749 
-0.8016376 0.34752157 0.48642156 
-0.8062223 0.34393036 0.4813705 
-0.8110953 0.33995837 0.4759756 
-0.81613344 0.33546975 0.47051704 
-0.8210435 0.3311096 0.46503136 
-0.82633597 0.3271268 0.4584287 
-0.8329768 0.321552 0.45028198 
-0.8401283 0.31348795 0.44261685 
-0.845921 0.3060936 0.43672016 
-0.85021967 0.30212042 0.43110305 
-0.8553051 0.30038273 0.42216527 
-0.8662577 0.29376158 0.4041061 
-0.8874565 0.27052015 0.3731487 
-0.9163016 0.22377834 0.3321366 
-0.9415254 0.16228318 0.29528654 
-0.9516222 0.1160505 0.28451273 
-0.8988455 0.15762997 0.40893707 
-0.879283 0.22394755 0.42036772 
-0.8323656 0.3080794 0.46071103 
-0.78340006 0.36651477 0.5019475 
-0.75382084 0.3894569 0.5292235 
-0.74597806 0.38931704 0.5403231 
-0.74985266 0.38216102 0.54006857 
-0.75613546 0.37703556 0.5348864 
-0.76088786 0.374993 0.5295564 
-0.76520574 0.37247002 0.52509654 
-0.7705492 0.36900663 0.51969993 
-0.7759094 0.36615336 0.5137085 
-0.78089035 0.3631218 0.50828415 
-0.7861601 0.3592046 0.5029159 
-0.7917474 0.35500413 0.49709985 
-0.79735774 0.3508374 0.49105382 
-0.80301213 0.34653842 0.48485318 
-0.80889606 0.34187686 0.4783381 
-0.8149975 0.3366533 0.47163942 
-0.82097596 0.33133596 0.46498924 
-0.82699794 0.32669666 0.45754096 
-0.8342374 0.3212699 0.4481446 
-0.8427431 0.31261587 0.43824133 
-0.85060406 0.30250618 0.43007308 
-0.85677385 0.29474333 0.42316058 
-0.8616827 0.29073048 0.4159071 
-0.8675579 0.2889813 0.404763 
-0.8790602 0.28183293 0.38447794 
-0.89942515 0.25872183 0.35227492 
-0.92604107 0.21383719 0.31100118 
-0.9488286 0.15588315 0.27463612 
-0.95797163 0.11294862 0.26369113 
-0.8850799 0.16761808 0.4342095 
-0.8642458 0.23541397 0.4445893 
-0.81442076 0.32070026 0.48360133 
-0.76386297 0.3781551 0.52298385 
-0.73543274 0.39862803 0.54793656 
-0.73088056 0.3956143 0.55615014 
-0.73830634 0.38723096 0.5522282 
-0.7466835 0.38277322 0.5440116 
-0.75222355 0.3822351 0.53670853 
-0.75647557 0.38051394 0.53193414 
-0.76275456 0.37492457 0.5269127 
-0.77064097 0.36907765 0.5195135 
-0.77779657 0.3649619 0.5116986 
-0.784258 0.3607804 0.50475425 
-0.7909283 0.35575446 0.4978668 
-0.79782766 0.35048857 0.49053928 
-0.8048045 0.34512746 0.48288387 
-0.81190693 0.33934277 0.47503027 
-0.81899726 0.333241 0.46711242 
-0.82605445 0.32751998 0.4586552 
-0.8339259 0.32153627 0.4485332 
-0.84309846 0.31286916 0.4373763 
-0.85210985 0.30198735 0.42744878 
-0.8597876 0.29259917 0.41851062 
-0.8665495 0.28605184 0.40898216 
-0.87295794 0.28219023 0.39788574 
-0.8811279 0.27858767 0.38210273 
-0.89433175 0.2681037 0.3581777 
-0.91447806 0.24260888 0.3238378 
-0.938854 0.19752426 0.28202406 
-0.95887864 0.14180636 0.24585114 
-0.966907 0.101121314 0.23423378 
-0.8692943 0.18963753 0.45647013 
-0.8457333 0.25839922 0.46686727 
-0.7910492 0.34419212 0.50574005 
-0.73726004 0.39956862 0.5447869 
-0.70968175 0.41528198 0.56911576 
-0.7095648 0.40606874 0.5758698 
-0.7231816 0.39205396 0.5685966 
-0.73667866 0.38513803 0.5558537 
-0.74506825 0.38509393 0.544588 
-0.7500851 0.3855925 0.5372995 
-0.75617516 0.3809274 0.5320653 
-0.7651797 0.3729222 0.5248134 
-0.77463174 0.36635992 0.51548624 
-0.782894 0.36127502 0.5065149 
-0.79072034 0.3557487 0.49820104 
-0.7987637 0.3495726 0.48966894 
-0.80696136 0.3431041 0.4807213 
-0.81514764 0.3363799 0.47157493 
-0.82329494 0.3296778 0.46205845 
-0.83190095 0.3228481 0.4513424 
-0.84155715 0.31419262 0.4393911 
-0.8514026 0.30324674 0.4279662 
-0.86014265 0.29319572 0.41736194 
-0.868424 0.28568295 0.40524697 
-0.87721545 0.27890688 0.39077374 
-0.8868775 0.27161366 0.3737305 
-0.89849585 0.26134124 0.35271254 
-0.9134382 0.24390016 0.32579654 
-0.93257475 0.21378618 0.29086053 
-0.95339096 0.16795984 0.2506695 
-0.96952695 0.11445117 0.21660672 
-0.9757345 0.07557232 0.20550232 
-0.8611595 0.20505992 0.46513957 
-0.8333606 0.27825794 0.47758004 
-0.7710062 0.36925426 0.51884556 
-0.7101625 0.42678973 0.5599284 
-0.6797579 0.44040123 0.5864947 
-0.68207335 0.4252564 0.5949228 
-0.7019433 0.40315533 0.5871469 
-0.7226605 0.38941717 0.5710658 
-0.7365195 0.38632512 0.5552404 
-0.74434 0.38739192 0.54395354 
-0.75105923 0.3846281 0.5366297 
-0.76041764 0.3766299 0.52907 
-0.77134365 0.36812016 0.5191499 
-0.78148305 0.3614109 0.5085926 
-0.790741 0.3550921 0.4986365 
-0.79992056 0.34815684 0.48878825 
-0.8092086 0.34076428 0.47860342 
-0.8184716 0.33322594 0.46804345 
-0.82788503 0.32559747 0.4567194 
-0.838001 0.31696156 0.44417313 
-0.84868073 0.306208 0.4312514 
-0.858667 0.29512754 0.4190355 
-0.8678861 0.2866346 0.40572706 
-0.8781505 0.2789174 0.38866028 
-0.89032835 0.267963 0.3681187 
-0.9038405 0.25253746 0.34539452 
-0.91801745 0.23282349 0.32099432 
-0.9328035 0.20858905 0.2938848 
-0.94867504 0.1770233 0.26206595 
-0.9643334 0.13556984 0.2273368 
-0.97589546 0.08949123 0.19904624 
-0.9799814 0.055954512 0.19106443 
-0.86400115 0.18985304 0.4663238 
-0.83324677 0.2734376 0.48055363 
-0.7629924 0.3782285 0.52420026 
-0.691801 0.44656235 0.5674446 
-0.65339 0.46566933 0.59685326 
-0.65301055 0.45008674 0.6090971 
-0.6761402 0.42197263 0.60396487 
-0.70368993 0.3998584 0.5873106 
-0.724664 0.39010888 0.5680468 
-0.73742366 0.38888088 0.5522482 
-0.7460802 0.38719776 0.541703 
-0.75598526 0.38000873 0.5329913 
-0.7679756 0.37045032 0.522475 
-0.7797534 0.36217567 0.51069903 
-0.7905003 0.35479754 0.49922755 
-0.8008698 0.3470549 0.48801693 
-0.8112328 0.33882442 0.47654957 
-0.82160234 0.33041096 0.46454087 
-0.83228034 0.3215951 0.45153743 
-0.8436457 0.31123817 0.4374846 
-0.8550278 0.29926276 0.4235201 
-0.86536926 0.28870133 0.409619 
-0.87595147 0.28065783 0.3923523 
-0.8892871 0.26956785 0.3694613 
-0.90519094 0.25062364 0.34324512 
-0.92137176 0.2253358 0.3166986 
-0.9357146 0.1982321 0.2917915 
-0.94773036 0.17337583 0.26785827 
-0.9587764 0.14913218 0.24188332 
-0.96918535 0.1212989 0.21439795 
-0.97702354 0.09109618 0.19268243 
-0.9796528 0.06932399 0.1883467 
-0.8627398 0.14737691 0.48369417 
-0.83572364 0.24163343 0.49313208 
-0.76487386 0.36308584 0.5321059 
-0.6865032 0.44854128 0.57229733 
-0.638062 0.48108947 0.6011905 
-0.62973136 0.47339138 0.61590505 
-0.65051734 0.445603 0.6150327 
-0.6818083 0.41736865 0.6007835 
-0.70946157 0.39950818 0.5805667 
-0.7286861 0.39265898 0.56110203 
-0.74109894 0.3901186 0.5464247 
-0.7520711 0.38402236 0.5356454 
-0.7647956 0.37410042 0.5245347 
-0.7779849 0.36435124 0.5118473 
-0.79021347 0.35575488 0.4990001 
-0.80177397 0.34713528 0.48647258 
-0.8131752 0.33806175 0.4737725 
-0.82462865 0.32870564 0.46036962 
-0.8365229 0.318554 0.4458171 
-0.84891826 0.30656824 0.43052733 
-0.86075133 0.29400635 0.41553286 
-0.87180203 0.28410417 0.39905632 
-0.88476723 0.27435297 0.37671936 
-0.9016085 0.25644737 0.34833446 
-0.9201743 0.22802939 0.3182483 
-0.9366847 0.19523567 0.29069737 
-0.9485848 0.16784523 0.26835603 
-0.9566026 0.15196668 0.24863172 
-0.96344095 0.14330211 0.22637588 
-0.9704987 0.13412452 0.20035721 
-0.9765317 0.12203516 0.17746346 
-0.9787431 0.11420208 0.17035277 
-0.82557917 0.1269382 0.54982334 
-0.81346834 0.21562509 0.5401622 
-0.75870436 0.33697885 0.5575061 
-0.68836665 0.43221897 0.5825274 
-0.6371721 0.47983304 0.6031351 
-0.620461 0.48619878 0.6153366 
-0.6340795 0.46660691 0.61662084 
-0.6638962 0.4380328 0.6061098 
-0.69539577 0.4138963 0.5874645 
-0.7204775 0.40002042 0.5664767 
-0.7376628 0.39393097 0.54833573 
-0.7507729 0.38785222 0.5347061 
-0.764183 0.37815636 0.5225152 
-0.7782824 0.36736625 0.50923336 
-0.7917246 0.35744953 0.49538076 
-0.80434436 0.34784034 0.48170242 
-0.8166404 0.3379107 0.46788338 
-0.82902586 0.32751307 0.45326737 
-0.8418608 0.31594893 0.43754628 
-0.8548466 0.3027826 0.4213788 
-0.867058 0.29019073 0.40496904 
-0.879427 0.27978668 0.3851331 
-0.8950609 0.26563826 0.35819322 
-0.9144361 0.23965439 0.3261481 
-0.93356806 0.20383133 0.29479405 
-0.9479746 0.17005315 0.26912087 
-0.9563695 0.15140711 0.24986662 
-0.96141845 0.15049699 0.23027223 
-0.96699405 0.15609786 0.20138545 
-0.9747556 0.15524855 0.16046654 
-0.98234206 0.1459672 0.117037274 
-0.985968 0.14002432 0.09088732 
-0.71442145 0.2037599 0.6693908 
-0.7332681 0.253543 0.6308992 
-0.7194677 0.33371586 0.6090977 
-0.6834945 0.41037232 0.60368025 
-0.64806914 0.46152353 0.60580736 
-0.63045895 0.4816818 0.60869056 
-0.63630563 0.4750718 0.6078009 
-0.6603528 0.4522915 0.5994719 
-0.69146806 0.42594552 0.5834745 
-0.7201199 0.40597597 0.5626819 
-0.7413533 0.39535257 0.5423023 
-0.75665295 0.38805932 0.52619976 