# OOMMF OVF 2.0
# Segment count: 1
# Begin: Segment
# Begin: Header
# Title: m
# meshtype: rectangular
# meshunit: m
# xmin: 0
# ymin: 0
# zmin: 0
# xmax: 1.6e-07
# ymax: 1.6e-07
# zmax: 5e-09
# valuedim: 3
# valuelabels: m_x m_y m_z
# valueunits: 1 1 1
# Desc: Total simulation time:  2.047e-12  s
# xbase: 2.5e-09
# ybase: 2.5e-09
# zbase: 2.5e-09
# xnodes: 32
# ynodes: 32
# znodes: 1
# xstepsize: 5e-09
# ystepsize: 5e-09
# zstepsize: 5e-09
# End: Header
# Begin: Data Text
-0.9995786 -0.009983614 -0.027260745 
-0.99991614 -0.00016747374 -0.01295311 
-0.99998635 0.00014251453 -0.0052266377 
-0.99999714 -0.000115457195 -0.0024052407 
-0.99999964 -2.6597247e-05 -0.00085427135 
-1 7.534496e-05 0.00018372748 
-0.99999964 0.00015565468 0.0009201513 
-0.99999887 0.0002201469 0.0014714953 
-0.99999815 0.00027301957 0.0019033336 
-0.9999975 0.00031730183 0.0022543776 
-0.9999967 0.00035523644 0.0025490704 
-0.99999607 0.00038848128 0.0028037746 
-0.99999535 0.00041828904 0.0030300412 
-0.99999475 0.00044563736 0.0032364607 
-0.99999404 0.00047131206 0.0034297751 
-0.9999933 0.00049599336 0.0036156205 
-0.9999926 0.00052028015 0.0037990282 
-0.99999195 0.00054476206 0.0039848466 
-0.9999912 0.0005700311 0.004178109 
-0.9999902 0.00059674185 0.0043844413 
-0.9999892 0.0006256484 0.004610586 
-0.99998796 0.0006576728 0.004865119 
-0.99998647 0.00069398567 0.0051595788 
-0.9999846 0.00073612115 0.0055103023 
-0.99998206 0.0007861206 0.0059416923 
-0.99997854 0.0008466864 0.006492387 
-0.9999735 0.00092143303 0.0072278096 
-0.9999654 0.0010150787 0.008264155 
-0.9999513 0.001090904 0.009812014 
-0.99992007 0.0008099459 0.012622523 
-0.9997933 0.0010404078 0.020308806 
-0.99934334 0.0105858175 0.03465468 
-0.9999126 5.034391e-05 -0.013220491 
-0.99997497 0.00014066306 -0.0070805694 
-0.9999927 -0.00029271832 -0.0038273945 
-0.9999982 -0.00016696363 -0.0019131069 
-0.9999999 -1.2663704e-05 -0.00058716454 
-0.99999994 0.00010178348 0.00034141686 
-0.9999995 0.00019175999 0.0010198699 
-0.99999887 0.00026429124 0.0015383792 
-0.99999803 0.00032387476 0.0019499459 
-0.9999973 0.00037386423 0.0022874926 
-0.9999966 0.0004167321 0.0025725714 
-0.99999595 0.00045431597 0.0028199942 
-0.9999953 0.00048801483 0.0030404204 
-0.99999464 0.0005189239 0.0032418934 
-0.999994 0.0005479314 0.0034308007 
-0.9999934 0.00057580695 0.0036125341 
-0.9999926 0.00060323626 0.0037919194 
-0.99999195 0.000630887 0.0039736247 
-0.9999912 0.0006594359 0.0041624843 
-0.9999903 0.00068962364 0.004363874 
-0.9999892 0.00072229817 0.0045841816 
-0.999988 0.0007584927 0.0048314445 
-0.9999866 0.0007995008 0.0051163062 
-0.99998486 0.000847002 0.005453552 
-0.9999825 0.0009032221 0.0058647012 
-0.99997914 0.00097109226 0.0063825985 
-0.9999745 0.0010543446 0.0070601082 
-0.99996746 0.0011585405 0.007987121 
-0.99995583 0.001296156 0.009310013 
-0.99993616 0.0013908255 0.011213265 
-0.9998956 0.0008573135 0.014428504 
-0.9997871 0.0006398155 0.020625765 
-0.9999863 0.00034566005 -0.0052391323 
-0.99999267 -0.00026003897 -0.0038189115 
-0.999997 -0.00024782948 -0.0024253954 
-0.9999994 -8.984184e-05 -0.0011486297 
-1 3.653292e-05 -0.00014911659 
-0.9999999 0.00013930831 0.0006107642 
-0.99999934 0.00022348655 0.0011984631 
-0.9999986 0.00029285642 0.0016642443 
-0.9999979 0.00035080302 0.0020430158 
-0.9999972 0.0004000277 0.0023588869 
-0.9999965 0.00044263073 0.0026288133 
-0.99999577 0.00048023305 0.002865049 
-0.9999952 0.000514106 0.0030767554 
-0.9999945 0.00054527365 0.0032710508 
-0.99999386 0.0005745824 0.0034537178 
-0.9999932 0.00060277444 0.0036297094 
-0.99999255 0.0006305174 0.0038035163 
-0.9999919 0.0006584597 0.0039794813 
-0.9999912 0.00068725843 0.004162094 
-0.99999034 0.0007176212 0.0043563014 
-0.99998933 0.00075035234 0.0045678834 
-0.99998814 0.00078639394 0.0048039462 
-0.9999869 0.00082690176 0.0050736386 
-0.99998516 0.0008733141 0.0053891838 
-0.99998295 0.00092743384 0.0057674963 
-0.99998015 0.0009914702 0.00623261 
-0.9999763 0.0010679192 0.006819268 
-0.9999707 0.0011588661 0.0075774025 
-0.9999625 0.0012660088 0.00857352 
-0.99995065 0.0013887461 0.009838442 
-0.9999366 0.0012939199 0.011191397 
-0.9999198 0.0003697297 0.012663407 
-0.9999972 -2.5053834e-05 -0.002389593 
-0.9999983 -0.0001454439 -0.001905773 
-0.9999994 -8.680661e-05 -0.0011485742 
-0.99999994 8.266135e-06 -0.00035199177 
-0.99999994 0.00010209395 0.00035055148 
-0.9999995 0.00018614878 0.00093760574 
-0.99999905 0.00025844297 0.0014216123 
-0.9999983 0.00032010168 0.0018224514 
-0.9999976 0.0003729097 0.0021586441 
-0.99999696 0.0004186071 0.0024452833 
-0.99999624 0.00045870253 0.0026941956 
-0.9999957 0.00049445336 0.0029146068 
-0.999995 0.0005268947 0.0031138123 
-0.9999944 0.00055689673 0.0032977331 
-0.99999386 0.0005852022 0.0034713363 
-0.99999326 0.0006124724 0.0036389767 
-0.9999926 0.0006393137 0.0038046557 
-0.9999919 0.0006663117 0.003972265 
-0.99999124 0.00069406093 0.004145812 
-0.99999034 0.0007231856 0.0043296404 
-0.99998945 0.00075437664 0.0045287125 
-0.99998844 0.000788418 0.0047489386 
-0.9999872 0.00082621677 0.0049975975 
-0.99998564 0.00086882693 0.0052838866 
-0.99998385 0.0009174308 0.0056195837 
-0.9999814 0.0009732347 0.006019698 
-0.9999784 0.0010370708 0.006502581 
-0.9999743 0.001108273 0.007087748 
-0.999969 0.0011814405 0.0077866456 
-0.9999625 0.0012394639 0.008570918 
-0.99995625 0.0011893302 0.009286443 
-0.99995154 0.0007492152 0.009819545 
-0.99999964 5.022107e-06 -0.0008466548 
-0.9999999 -4.2705674e-06 -0.0005828922 
-1 3.716421e-05 -0.00014910086 
-0.99999994 0.000101362115 0.00035014312 
-0.99999964 0.00017078086 0.0008377672 
-0.9999992 0.00023690442 0.0012792619 
-0.9999986 0.00029666824 0.0016658925 
-0.99999803 0.00034957536 0.0020007829 
-0.99999726 0.00039617415 0.0022911772 
-0.99999666 0.00043736547 0.0025449977 
-0.99999607 0.0004740924 0.0027695447 
-0.99999547 0.0005072357 0.0029711584 
-0.9999949 0.0005375794 0.0031552531 
-0.99999434 0.00056581764 0.003326472 
-0.99999374 0.00059256697 0.003488886 
-0.9999932 0.0006183917 0.0036461656 
-0.9999926 0.00064381637 0.0038017493 
-0.999992 0.0006693491 0.003959 
-0.9999913 0.00069549924 0.004121355 
-0.9999905 0.0007227954 0.0042924774 
-0.99998975 0.00075179443 0.004476429 
-0.9999888 0.0007831026 0.004677847 
-0.99998766 0.00081736216 0.0049021244 
-0.99998635 0.00085523986 0.0051555755 
-0.99998486 0.00089734176 0.0054454473 
-0.9999829 0.00094400416 0.005779567 
-0.9999805 0.0009948043 0.0061650057 
-0.9999777 0.0010474361 0.006604508 
-0.9999743 0.0010954293 0.0070883185 
-0.99997073 0.0011217745 0.007574961 
-0.9999677 0.0010538148 0.00796658 
-0.99996555 0.00072450354 0.008278928 
-1 6.9685666e-05 0.00018898594 
-0.99999994 9.707251e-05 0.0003420651 
-0.9999999 0.00013542904 0.0006100365 
-0.9999995 0.00018325068 0.0009368456 
-0.9999992 0.00023535837 0.0012788809 
-0.9999987 0.00028699808 0.0016085951 
-0.99999815 0.0003355682 0.0019127456 
-0.9999976 0.00038003782 0.0021873384 
-0.999997 0.0004202886 0.0024333014 
-0.9999964 0.00045664047 0.002653774 
-0.9999959 0.0004896016 0.0028526494 
-0.99999523 0.00051973056 0.003033889 
-0.99999475 0.0005475802 0.003201241 
-0.9999942 0.00057367777 0.0033581597 
-0.9999937 0.0005985115 0.0035078332 
-0.9999932 0.0006225397 0.0036532385 
-0.9999926 0.0006462016 0.0037972261 
-0.9999921 0.00066992146 0.003942602 
-0.9999914 0.00069411827 0.0040922104 
-0.99999076 0.00071921706 0.004249028 
-0.99999005 0.00074564404 0.00441623 
-0.9999892 0.00077383127 0.0045972657 
-0.9999882 0.0008041846 0.0047958605 
-0.9999871 0.00083704706 0.0050159437 
-0.99998575 0.00087257626 0.0052613583 
-0.99998426 0.0009105264 0.005535147 
-0.9999826 0.00094979483 0.005838049 
-0.9999805 0.0009875504 0.0061656884 
-0.99997836 0.0010178243 0.006503789 
-0.9999762 0.001027421 0.00681781 
-0.9999748 0.00095612265 0.0070433235 
-0.99997354 0.00066332915 0.0072446694 
-0.99999964 0.00012301399 0.0009250436 
-0.9999995 0.00017690961 0.0010178392 
-0.99999934 0.00021532032 0.0011972222 
-0.99999905 0.00025303345 0.0014207185 
-0.9999986 0.00029331417 0.00166531 
-0.99999815 0.0003339853 0.0019124907 
-0.9999976 0.00037329594 0.0021503808 
-0.99999714 0.0004102773 0.0023730176 
-0.99999666 0.00044455595 0.002578435 
-0.99999607 0.0004761353 0.0027670134 
-0.9999956 0.0005052304 0.002940384 
-0.99999505 0.0005321646 0.0031007489 
-0.9999946 0.00055730355 0.0032505197 
-0.9999941 0.0005810246 0.0033921397 
-0.9999936 0.0006036995 0.0035280008 
-0.99999315 0.0006256896 0.0036604307 
-0.9999926 0.00064734626 0.0037917115 
-0.9999921 0.0006690127 0.003924111 
-0.99999154 0.0006910225 0.0040599047 
-0.9999909 0.0007136968 0.0042014183 
-0.99999034 0.0007373458 0.0043510348 
-0.99998957 0.0007622523 0.0045111873 
-0.99998873 0.000788634 0.0046842657 
-0.9999879 0.00081658736 0.0048724394 
-0.9999868 0.0008459784 0.005077285 
-0.9999856 0.00087624654 0.0052990885 
-0.99998426 0.0009060372 0.005535686 
-0.9999829 0.00093258853 0.0057807295 
-0.9999814 0.00095080736 0.006021295 
-0.9999802 0.0009501118 0.006231876 
-0.9999793 0.0008787494 0.006368629 
-0.99997866 0.00061238173 0.006509514 
-0.999999 0.00016706299 0.0014768069 
-0.9999988 0.00024136658 0.0015347609 
-0.9999986 0.00028083767 0.0016628078 
-0.9999983 0.00031223023 0.0018215788 
-0.99999803 0.0003444172 0.002000152 
-0.9999976 0.00037694155 0.0021869629 
-0.99999714 0.00040885858 0.0023728618 
-0.99999666 0.0004394733 0.002552139 
-0.99999624 0.00046839478 0.0027218694 
-0.9999957 0.00049549266 0.002881083 
-0.99999523 0.00052081875 0.0030300613 
-0.9999948 0.00054453564 0.0031698253 
-0.9999944 0.00056687207 0.0033018012 
-0.999994 0.00058808713 0.0034276242 
-0.9999935 0.00060845277 0.0035490177 
-0.99999315 0.0006282466 0.0036677434 
-0.9999927 0.0006477386 0.0037855678 
-0.99999225 0.00066719553 0.0039042593 
-0.9999917 0.0006868706 0.004025584 
-0.9999912 0.0007070003 0.0041512954 
-0.9999906 0.00072779664 0.0042831153 
-0.99999 0.00074941624 0.0044226586 
-0.9999893 0.0007719447 0.004571334 
-0.9999885 0.00079531455 0.004730128 
-0.9999877 0.00081923004 0.004899267 
-0.9999868 0.0008429965 0.005077683 
-0.99998575 0.000865252 0.005262258 
-0.99998486 0.0008835181 0.005446886 
-0.99998385 0.0008935132 0.005621363 
-0.99998295 0.0008863944 0.005767128 
-0.9999826 0.00081603887 0.0058524404 
-0.9999822 0.0005700319 0.0059583774 
-0.99999815 0.00020374429 0.0019093384 
-0.9999981 0.00029429377 0.0019452983 
-0.9999979 0.0003354112 0.0020415455 
-0.9999976 0.000362784 0.002157891 
-0.9999973 0.0003893315 0.0022906018 
-0.999997 0.00041579735 0.0024329117 
-0.99999666 0.00044187548 0.002578216 
-0.99999624 0.00046717815 0.0027217825 
-0.99999577 0.00049141055 0.0028606874 
-0.9999954 0.00051441777 0.0029934524 
-0.99999505 0.0005361751 0.0031196533 
-0.99999464 0.00055675296 0.0032395807 
-0.9999943 0.00057628565 0.0033539871 
-0.9999939 0.00059494295 0.0034639009 
-0.9999935 0.00061291974 0.0035705164 
-0.9999931 0.00063042174 0.0036751206 
-0.9999927 0.0006476492 0.003779037 
-0.99999225 0.00066480396 0.0038836051 
-0.9999919 0.00068206945 0.003990149 
-0.99999136 0.00069961156 0.0040999497 
-0.99999094 0.00071756146 0.0042141937 
-0.99999034 0.0007359916 0.0043338956 
-0.99998975 0.0007548837 0.004459782 
-0.99998915 0.00077408913 0.004592114 
-0.9999885 0.00079323334 0.004730413 
-0.9999879 0.0008115978 0.0048731 
-0.9999871 0.00082792016 0.00501705 
-0.99998635 0.0008400395 0.0051571373 
-0.99998575 0.000844322 0.0052857064 
-0.99998516 0.00083313056 0.005388983 
-0.999985 0.00076438603 0.005442423 
-0.99998456 0.0005345976 0.005526294 
-0.9999975 0.00023476771 0.0022611339 
-0.99999744 0.00033869964 0.0022821138 
-0.99999714 0.00038170925 0.0023574717 
-0.99999696 0.00040647155 0.0024447064 
-0.99999666 0.0004289985 0.0025445444 
-0.9999964 0.00045089214 0.0026534419 
-0.99999607 0.0004723398 0.0027668015 
-0.9999957 0.00049323065 0.0028809696 
-0.9999954 0.00051339716 0.0029934119 
-0.9999951 0.00053272105 0.003102595 
-0.9999947 0.0005511562 0.0032077965 
-0.9999944 0.00056872633 0.0033089046 
-0.9999941 0.0005855076 0.0034062357 
-0.99999374 0.0006016092 0.0035003975 
-0.99999344 0.00061716867 0.0035921817 
-0.999993 0.00063233194 0.003682493 
-0.99999267 0.0006472425 0.0037722918 
-0.9999924 0.0006620485 0.0038625663 
-0.999992 0.00067688077 0.0039542764 
-0.9999916 0.0006918453 0.0040483223 
-0.9999912 0.0007070108 0.0041454867 
-0.99999076 0.0007223913 0.0042463616 
-0.9999903 0.0007379152 0.0043512424 
-0.99998975 0.0007533834 0.0044599837 
-0.9999893 0.0007684027 0.004571806 
-0.99998873 0.0007822936 0.004685075 
-0.9999882 0.0007939257 0.0047970596 
-0.99998766 0.00080141803 0.004903706 
-0.9999872 0.0008016357 0.0049993657 
-0.9999868 0.00078780175 0.005073489 
-0.99998677 0.0007209339 0.005105987 
-0.9999865 0.00050451 0.0051748347 
-0.9999967 0.00026152603 0.0025565657 
-0.9999967 0.00037679734 0.002566646 
-0.9999965 0.00042176014 0.0026274936 
-0.99999636 0.000444787 0.0026938186 
-0.99999607 0.00046436884 0.0027692534 
-0.9999958 0.0004827388 0.0028524224 
-0.9999956 0.000500461 0.0029402277 
-0.99999535 0.0005176604 0.0030299702 
-0.99999505 0.0005342984 0.0031196133 
-0.9999947 0.00055031345 0.0032077858 
-0.9999944 0.00056567666 0.00329371 
-0.99999416 0.0005803945 0.0033770883 
-0.9999939 0.0005945059 0.0034579814 
-0.9999936 0.00060808886 0.00353671 
-0.99999326 0.0006212341 0.0036137777 
-0.999993 0.0006340438 0.003689799 
-0.9999928 0.00064662274 0.0037654543 
-0.99999243 0.0006590712 0.0038414397 
-0.99999213 0.000671475 0.003918433 
-0.9999918 0.0006839032 0.003997043 
-0.99999154 0.00069637556 0.004077763 
-0.9999912 0.00070887187 0.004160902 
-0.99999076 0.00072129094 0.004246502 
-0.99999034 0.00073341216 0.004334227 
-0.99999 0.00074485986 0.0044232365 
-0.99998957 0.0007550164 0.0045120646 
-0.9999892 0.0007628846 0.0045984755 
-0.9999888 0.0007668199 0.004679373 
-0.99998844 0.00076406344 0.004750602 
-0.99998826 0.0007484787 0.0048037833 
-0.9999882 0.00068355206 0.0048217387 
-0.999988 0.0004784572 0.0048796544 
-0.99999607 0.00028510057 0.00281198 
-0.99999595 0.0004102239 0.0028136345 
-0.9999958 0.000457119 0.0028638474 
-0.9999957 0.00047896308 0.0029144394 
-0.99999547 0.00049631024 0.0029710482 
-0.99999535 0.00051189057 0.0030337982 
-0.99999505 0.00052655267 0.003100683 
-0.9999948 0.00054061605 0.0031697906 
-0.99999464 0.000554162 0.0032395713 
-0.9999944 0.0005671955 0.003308909 
-0.99999416 0.0005797146 0.003377096 
-0.999994 0.0005917277 0.0034437825 
-0.9999937 0.0006032666 0.003508898 
-0.9999935 0.0006143824 0.0035725867 
-0.99999326 0.0006251381 0.003635156 
-0.999993 0.0006356039 0.0036970053 
-0.9999927 0.0006458561 0.0037585981 
-0.99999255 0.0006559573 0.003820412 
-0.99999225 0.0006659639 0.0038829043 
-0.9999921 0.0006759075 0.003946474 
-0.9999918 0.00068578974 0.004011412 
-0.99999154 0.00069556286 0.004077858 
-0.9999912 0.00070510997 0.004145715 
-0.99999094 0.00071422325 0.0042145965 
-0.9999906 0.0007225499 0.004283737 
-0.99999034 0.0007295439 0.0043519167 
-0.99999005 0.0007343256 0.004417394 
-0.99998975 0.0007354477 0.004477854 
-0.99998945 0.0007304431 0.004530237 
-0.9999893 0.0007136643 0.0045676655 
-0.9999894 0.00065066345 0.0045749582 
-0.9999892 0.00045541362 0.004624427 
-0.99999535 0.00030632594 0.0030389235 
-0.9999954 0.00044022393 0.003033698 
-0.9999952 0.00048899645 0.0030756784 
-0.9999951 0.0005100083 0.0031138575 
-0.9999949 0.00052559597 0.003155331 
-0.99999475 0.00053888996 0.0032013007 
-0.99999464 0.0005509722 0.003250566 
-0.9999944 0.0005623164 0.0033018452 
-0.9999943 0.0005731098 0.0033540295 
-0.9999941 0.00058342435 0.0034062748 
-0.9999939 0.0005932907 0.0034580114 
-0.9999937 0.00060273707 0.0035089147 
-0.9999935 0.0006117935 0.0035588676 
-0.9999934 0.00062049826 0.003607921 
-0.9999932 0.00062889967 0.0036562465 
-0.9999929 0.00063704554 0.0037040939 
-0.9999928 0.0006449841 0.0037517673 
-0.9999926 0.0006527618 0.0037995784 
-0.99999243 0.00066040584 0.0038478265 
-0.9999922 0.0006679299 0.0038967575 
-0.9999921 0.0006753167 0.0039465358 
-0.9999918 0.0006825074 0.0039971927 
-0.9999916 0.0006893855 0.0040485933 
-0.99999136 0.0006957586 0.0041003767 
-0.9999912 0.0007013162 0.0041519133 
-0.999991 0.00070557033 0.0042022564 
-0.99999076 0.0007077558 0.0042501055 
-0.99999064 0.0007065775 0.004293773 
-0.9999904 0.0006998029 0.0043310057 
-0.9999903 0.00068218575 0.004356005 
-0.9999904 0.0006210582 0.0043550483 
-0.9999903 0.00043458017 0.004397621 
-0.99999475 0.00032586415 0.003245985 
-0.99999464 0.00046777772 0.0032348526 
-0.9999945 0.00051836466 0.0032700987 
-0.9999944 0.0005387632 0.0032979841 
-0.99999434 0.0005529041 0.0033267397 
-0.9999942 0.00056425715 0.0033583795 
-0.99999404 0.0005740888 0.0033923127 
-0.999994 0.0005830114 0.003427761 
-0.9999939 0.0005913037 0.0034640087 
-0.99999374 0.0005990981 0.0035004814 
-0.9999936 0.0006064676 0.0035367722 
-0.9999935 0.0006134584 0.003572628 
-0.9999934 0.0006201096 0.0036079413 
-0.9999932 0.0006264573 0.0036427167 
-0.9999931 0.00063253636 0.00367704 
-0.9999929 0.00063838507 0.0037110662 
-0.99999285 0.0006440364 0.0037449775 
-0.9999927 0.0006495138 0.0037789652 
-0.9999926 0.00065483374 0.0038132137 
-0.99999243 0.00065999245 0.0038478645 
-0.99999225 0.00066496455 0.0038830002 
-0.99999213 0.0006696872 0.0039186087 
-0.999992 0.0006740579 0.0039545577 
-0.9999919 0.00067789946 0.0039905645 
-0.9999917 0.00068094133 0.004026161 
-0.99999154 0.0006827627 0.0040606684 
-0.9999914 0.00068268954 0.004093177 
-0.9999913 0.00067956006 0.0041225036 
-0.9999912 0.0006713303 0.0041470085 
-0.9999911 0.00065309653 0.004161705 
-0.9999912 0.0005937864 0.0041540014 
-0.9999912 0.0004153173 0.0041906578 
-0.9999941 0.00034426007 0.003439916 
-0.9999941 0.00049368024 0.0034234708 
-0.9999939 0.00054603425 0.003452889 
-0.99999386 0.0005659524 0.0034717903 
-0.99999374 0.0005788404 0.0034893425 
-0.9999937 0.00058847055 0.0035082146 
-0.9999936 0.00059627224 0.0035283044 
-0.9999935 0.00060297066 0.0035492538 
-0.9999935 0.0006089316 0.0035706975 
-0.99999344 0.0006143488 0.003592318 
-0.99999326 0.00061933073 0.003613876 
-0.99999326 0.00062394666 0.0036352216 
-0.9999932 0.0006282503 0.003656285 
-0.9999931 0.000632281 0.0036770562 
-0.999993 0.00063606864 0.0036975816 
-0.9999929 0.0006396428 0.003717939 
-0.99999285 0.00064302393 0.0037382233 
-0.9999928 0.0006462272 0.0037585422 
-0.9999927 0.00064925116 0.003778987 
-0.9999926 0.000652088 0.0037996338 
-0.99999255 0.0006547075 0.003820519 
-0.99999243 0.00065705273 0.003841616 
-0.9999924 0.00065902586 0.0038628324 
-0.99999225 0.00066047977 0.0038839832 
-0.9999922 0.0006611841 0.0039047722 
-0.99999213 0.0006607773 0.00392478 
-0.9999921 0.0006586654 0.0039434372 
-0.999992 0.0006538067 0.0039599896 
-0.9999919 0.00064432324 0.003973286 
-0.9999919 0.00062560855 0.0039789896 
-0.9999921 0.0005680615 0.0039654505 
-0.99999195 0.00039709624 0.0039967857 
-0.99999344 0.00036198413 0.0036263634 
-0.9999933 0.00051861664 0.0036049217 
-0.9999933 0.0005727051 0.0036289978 
-0.9999932 0.00059221627 0.003639625 
-0.99999315 0.00060395966 0.0036468075 
-0.9999932 0.00061198405 0.0036537775 
-0.99999315 0.0006178787 0.003660862 
-0.99999315 0.0006224706 0.0036680796 
-0.9999931 0.00062620133 0.0036753763 
-0.999993 0.0006293193 0.00368268 
-0.999993 0.00063197507 0.0036899298 
-0.999993 0.00063426775 0.0036970933 
-0.9999929 0.00063626125 0.0037041465 
-0.9999929 0.0006379996 0.003711092 
-0.9999929 0.0006395163 0.0037179473 
-0.99999285 0.00064083113 0.0037247348 
-0.9999929 0.0006419564 0.003731486 
-0.99999285 0.000642896 0.0037382334 
-0.99999285 0.0006436472 0.003745006 
-0.9999928 0.0006441912 0.0037518262 
-0.9999927 0.0006444974 0.0037587003 
-0.9999928 0.00064451405 0.0037656126 
-0.99999267 0.00064415945 0.0037725235 
-0.9999927 0.00064331375 0.0037793606 
-0.9999927 0.0006417848 0.0037859997 
-0.9999926 0.0006392635 0.003792267 
-0.9999926 0.0006352398 0.0037979172 
-0.9999926 0.0006287785 0.0038025684 
-0.9999926 0.000618147 0.003805491 
-0.9999926 0.0005990225 0.0038029167 
-0.9999927 0.0005432098 0.0037840302 
-0.99999267 0.0003794588 0.0038103673 
-0.99999267 0.0003794597 0.0038103699 
-0.9999927 0.0005432108 0.0037840318 
-0.9999926 0.0005990232 0.0038029184 
-0.9999926 0.0006181483 0.0038054944 
-0.9999926 0.0006287794 0.0038025696 
-0.9999926 0.00063524075 0.003797918 
-0.9999926 0.000639264 0.0037922678 
-0.9999927 0.0006417851 0.003786001 
-0.9999927 0.0006433142 0.0037793615 
-0.99999267 0.0006441599 0.0037725244 
-0.9999928 0.0006445143 0.0037656135 
-0.9999927 0.0006444979 0.0037587003 
-0.9999928 0.0006441912 0.0037518258 
-0.99999285 0.0006436469 0.0037450062 
-0.99999285 0.0006428961 0.003738233 
-0.9999929 0.00064195687 0.0037314862 
-0.99999285 0.0006408307 0.0037247345 
-0.9999929 0.00063951616 0.0037179468 
-0.9999929 0.0006380001 0.0037110937 
-0.9999929 0.0006362618 0.003704147 
-0.999993 0.0006342678 0.0036970917 
-0.999993 0.0006319754 0.0036899294 
-0.999993 0.0006293189 0.00368268 
-0.9999931 0.00062620186 0.0036753763 
-0.99999315 0.0006224704 0.00366808 
-0.99999315 0.00061787805 0.0036608628 
-0.9999932 0.0006119857 0.0036537778 
-0.99999315 0.00060395984 0.0036468073 
-0.9999932 0.00059221615 0.0036396245 
-0.9999933 0.00057270494 0.003628998 
-0.9999933 0.0005186167 0.0036049213 
-0.99999344 0.00036198425 0.0036263622 
-0.99999195 0.00039709723 0.0039967876 
-0.9999921 0.0005680614 0.0039654514 
-0.9999919 0.00062560814 0.003978991 
-0.9999919 0.0006443234 0.0039732875 
-0.999992 0.00065380667 0.00395999 
-0.9999921 0.0006586649 0.003943438 
-0.99999213 0.0006607776 0.0039247805 
-0.9999922 0.00066118396 0.0039047718 
-0.99999225 0.0006604801 0.003883983 
-0.9999924 0.0006590261 0.0038628338 
-0.99999243 0.00065705256 0.0038416171 
-0.99999255 0.0006547075 0.0038205185 
-0.9999926 0.0006520883 0.0037996334 
-0.9999927 0.00064925145 0.003778987 
-0.9999928 0.00064622617 0.0037585418 
-0.99999285 0.00064302376 0.0037382226 
-0.9999929 0.0006396432 0.0037179387 
-0.999993 0.0006360687 0.003697582 
-0.9999931 0.00063228054 0.003677057 
-0.9999932 0.00062825094 0.0036562851 
-0.99999326 0.0006239464 0.003635221 
-0.99999326 0.00061932986 0.0036138762 
-0.99999344 0.00061434944 0.0035923182 
-0.9999935 0.00060893147 0.0035706982 
-0.9999935 0.00060297083 0.0035492543 
-0.9999936 0.0005962725 0.0035283044 
-0.9999937 0.00058846985 0.0035082146 
-0.99999374 0.0005788405 0.0034893423 
-0.99999386 0.0005659529 0.003471791 
-0.9999939 0.0005460341 0.0034528892 
-0.9999941 0.00049368007 0.00342347 
-0.9999941 0.00034425917 0.0034399151 
-0.9999912 0.00041531754 0.004190659 
-0.9999912 0.0005937861 0.004154002 
-0.9999911 0.0006530974 0.004161706 
-0.9999912 0.0006713312 0.004147009 
-0.9999913 0.00067956076 0.0041225045 
-0.9999914 0.0006826898 0.0040931785 
-0.99999154 0.0006827632 0.00406067 
-0.9999917 0.00068094087 0.0040261606 
-0.9999919 0.00067789934 0.003990565 
-0.999992 0.0006740581 0.0039545596 
-0.99999213 0.00066968764 0.0039186077 
-0.99999225 0.0006649642 0.003882999 
-0.99999243 0.0006599926 0.0038478654 
-0.9999926 0.00065483386 0.0038132141 
-0.9999927 0.0006495142 0.0037789661 
-0.99999285 0.0006440365 0.003744978 
-0.9999929 0.0006383854 0.0037110667 
-0.9999931 0.00063253613 0.0036770408 
-0.9999932 0.0006264575 0.0036427171 
-0.9999934 0.00062010996 0.0036079418 
-0.9999935 0.00061345845 0.003572628 
-0.9999936 0.0006064683 0.003536773 
-0.99999374 0.0005990978 0.003500482 
-0.9999939 0.00059130363 0.0034640082 
-0.999994 0.0005830117 0.0034277616 
-0.99999404 0.00057408924 0.0033923122 
-0.9999942 0.0005642561 0.0033583792 
-0.99999434 0.00055290345 0.0033267406 
-0.9999944 0.0005387637 0.003297984 
-0.9999945 0.0005183654 0.0032700982 
-0.99999464 0.00046777737 0.003234852 
-0.99999475 0.00032586415 0.003245983 
-0.9999903 0.00043458055 0.0043976232 
-0.9999904 0.0006210582 0.0043550483 
-0.9999903 0.00068218645 0.0043560057 
-0.9999904 0.00069980207 0.004331006 
-0.99999064 0.00070657744 0.0042937743 
-0.99999076 0.0007077568 0.004250107 
-0.999991 0.0007055709 0.0042022574 
-0.9999912 0.0007013152 0.0041519143 
-0.99999136 0.0006957589 0.004100377 
-0.9999916 0.0006893867 0.0040485933 
-0.9999918 0.00068250735 0.0039971936 
-0.9999921 0.00067531585 0.003946534 
-0.9999922 0.00066792936 0.0038967566 
-0.99999243 0.000660406 0.0038478274 
-0.9999926 0.00065276213 0.0037995786 
-0.9999928 0.0006449844 0.0037517678 
-0.9999929 0.0006370453 0.0037040943 
-0.9999932 0.00062890036 0.0036562462 
-0.9999934 0.00062049815 0.0036079213 
-0.9999935 0.0006117928 0.0035588667 
-0.9999937 0.00060273666 0.0035089143 
-0.9999939 0.0005932908 0.0034580117 
-0.9999941 0.00058342447 0.0034062744 
-0.9999943 0.0005731091 0.0033540288 
-0.9999944 0.00056231674 0.0033018452 
-0.99999464 0.00055097183 0.0032505668 
-0.99999475 0.00053888996 0.003201301 
-0.9999949 0.00052559614 0.0031553311 
-0.9999951 0.0005100078 0.0031138577 
-0.9999952 0.0004889962 0.0030756781 
-0.9999954 0.00044022428 0.0030336964 
-0.99999535 0.00030632524 0.0030389212 
-0.9999892 0.00045541313 0.0046244264 
-0.9999894 0.0006506635 0.0045749582 
-0.9999893 0.00071366434 0.004567666 
-0.99998945 0.00073044316 0.0045302366 
-0.99998975 0.00073544757 0.004477854 
-0.99999005 0.00073432486 0.0044173934 
-0.99999034 0.0007295441 0.004351917 
-0.9999906 0.0007225511 0.004283738 
-0.99999094 0.0007142227 0.004214596 
-0.9999912 0.00070511 0.0041457145 
-0.99999154 0.00069556327 0.0040778574 
-0.9999918 0.00068579 0.0040114126 
-0.9999921 0.0006759071 0.003946473 
-0.99999225 0.000665964 0.0038829045 
-0.99999255 0.0006559573 0.0038204126 
-0.9999927 0.0006458559 0.0037585988 
-0.999993 0.0006356038 0.003697006 
-0.99999326 0.00062513864 0.0036351555 
-0.9999935 0.00061438204 0.0035725872 
-0.9999937 0.00060326623 0.0035088975 
-0.999994 0.00059172773 0.0034437825 
-0.99999416 0.00057971454 0.0033770963 
-0.9999944 0.00056719535 0.003308909 
-0.99999464 0.0005541624 0.0032395711 
-0.9999948 0.0005406154 0.0031697894 
-0.99999505 0.0005265525 0.0031006825 
-0.99999535 0.00051189086 0.0030337982 
-0.99999547 0.0004963105 0.0029710478 
-0.9999957 0.00047896183 0.0029144392 
-0.9999958 0.00045711917 0.0028638467 
-0.99999595 0.00041022338 0.0028136345 
-0.99999607 0.00028510034 0.0028119786 
-0.999988 0.00047845708 0.004879653 
-0.9999882 0.0006835534 0.0048217387 
-0.99998826 0.0007484784 0.004803784 
-0.99998844 0.0007640639 0.0047506015 
-0.9999888 0.00076681917 0.004679372 
-0.9999892 0.00076288515 0.004598474 
-0.99998957 0.0007550163 0.0045120646 
-0.99999 0.0007448609 0.0044232374 
-0.99999034 0.00073341216 0.0043342267 
-0.99999076 0.0007212901 0.0042465017 
-0.9999912 0.0007088712 0.0041609025 
-0.99999154 0.00069637527 0.004077763 
-0.9999918 0.000683903 0.0039970432 
-0.99999213 0.0006714751 0.003918432 
-0.99999243 0.00065907056 0.003841439 
-0.9999928 0.0006466229 0.0037654534 
-0.999993 0.00063404336 0.0036897985 
-0.99999326 0.0006212346 0.003613778 
-0.9999936 0.00060808886 0.00353671 
-0.9999939 0.0005945068 0.0034579814 
-0.99999416 0.0005803942 0.003377089 
-0.9999944 0.0005656767 0.00329371 
-0.9999947 0.0005503138 0.003207786 
-0.99999505 0.0005342984 0.0031196119 
-0.99999535 0.0005176595 0.0030299688 
-0.9999956 0.0005004602 0.0029402268 
-0.9999958 0.00048273927 0.0028524217 
-0.99999607 0.00046436902 0.0027692532 
-0.99999636 0.00044478677 0.0026938186 
-0.9999965 0.00042175996 0.0026274938 
-0.9999967 0.0003767969 0.0025666456 
-0.9999967 0.00026152632 0.0025565657 
-0.9999865 0.00050451024 0.005174835 
-0.99998677 0.00072093366 0.005105987 
-0.9999868 0.0007878027 0.005073489 
-0.9999872 0.00080163486 0.004999366 
-0.99998766 0.0008014192 0.0049037053 
-0.9999882 0.00079392485 0.0047970586 
-0.99998873 0.0007822933 0.0046850755 
-0.9999893 0.0007684023 0.0045718066 
-0.99998975 0.00075338315 0.0044599837 
-0.9999903 0.00073791563 0.0043512434 
-0.99999076 0.00072239205 0.004246362 
-0.9999912 0.0007070101 0.004145488 
-0.9999916 0.0006918456 0.004048323 
-0.999992 0.0006768805 0.0039542764 
-0.9999924 0.00066204835 0.0038625656 
-0.99999267 0.0006472416 0.0037722911 
-0.999993 0.00063233165 0.0036824928 
-0.99999344 0.0006171691 0.0035921829 
-0.99999374 0.0006016093 0.0035003975 
-0.9999941 0.0005855081 0.0034062362 
-0.9999944 0.0005687264 0.0033089044 
-0.9999947 0.00055115594 0.0032077963 
-0.9999951 0.0005327209 0.003102594 
-0.9999954 0.00051339675 0.0029934107 
-0.9999957 0.00049323065 0.0028809693 
-0.99999607 0.0004723401 0.0027668008 
-0.9999964 0.00045089278 0.0026534414 
-0.99999666 0.00042899823 0.0025445449 
-0.99999696 0.00040647094 0.002444707 
-0.99999714 0.00038170902 0.0023574713 
-0.99999744 0.00033869984 0.0022821135 
-0.9999975 0.00023476759 0.0022611339 
-0.99998456 0.0005345965 0.005526294 
-0.999985 0.00076438667 0.0054424233 
-0.99998516 0.00083313073 0.0053889835 
-0.99998575 0.0008443227 0.005285707 
-0.99998635 0.00084003876 0.0051571378 
-0.9999871 0.0008279207 0.005017051 
-0.9999879 0.0008115976 0.0048731 
-0.9999885 0.0007932337 0.004730414 
-0.99998915 0.00077408913 0.004592116 
-0.99998975 0.0007548835 0.004459782 
-0.99999034 0.000735991 0.004333896 
-0.99999094 0.0007175621 0.004214193 
-0.99999136 0.00069961086 0.00409995 
-0.9999919 0.0006820696 0.003990149 
-0.99999225 0.0006648037 0.0038836054 
-0.9999927 0.00064764946 0.0037790372 
-0.9999931 0.00063042145 0.003675121 
-0.9999935 0.0006129201 0.0035705166 
-0.9999939 0.0005949431 0.0034639006 
-0.9999943 0.000576285 0.003353987 
-0.99999464 0.00055675296 0.0032395807 
-0.99999505 0.0005361758 0.003119653 
-0.9999954 0.0005144176 0.0029934517 
-0.99999577 0.0004914102 0.0028606872 
-0.99999624 0.0004671785 0.0027217828 
-0.99999666 0.00044187545 0.0025782154 
-0.999997 0.0004157966 0.0024329112 
-0.9999973 0.00038933146 0.002290602 
-0.9999976 0.00036278434 0.0021578916 
-0.9999979 0.0003354114 0.0020415457 
-0.9999981 0.00029429427 0.0019452986 
-0.99999815 0.0002037453 0.0019093397 