# OOMMF OVF 2.0
# Segment count: 1
# Begin: Segment
# Begin: Header
# Title: m
# meshtype: rectangular
# meshunit: m
# xmin: 0
# ymin: 0
# zmin: 0
# xmax: 1.6e-07
# ymax: 1.6e-07
# zmax: 5e-09
# valuedim: 3
# valuelabels: m_x m_y m_z
# valueunits: 1 1 1
# Desc: Total simulation time:  3.5334678970071935e-11  s
# xbase: 2.5e-09
# ybase: 2.5e-09
# zbase: 2.5e-09
# xnodes: 32
# ynodes: 32
# znodes: 1
# xstepsize: 5e-09
# ystepsize: 5e-09
# zstepsize: 5e-09
# End: Header
# Begin: Data Text
-0.0833234 -0.9882311 0.12828287 
-0.050480187 -0.9960678 0.07280551 
7.758504e-06 -0.99816924 0.060483266 
-0.15103786 -0.9644411 0.21688928 
-0.8839329 0.00034389898 0.4676137 
-0.20699589 0.7945807 0.5707839 
0.20538741 0.67745906 0.706304 
0.26217967 0.3413272 0.9026393 
0.20783572 0.16638231 0.9639094 
0.25450435 0.21146552 0.9436683 
0.37427235 0.29722735 0.87839407 
0.48177513 0.3161008 0.8172962 
0.5459945 0.2742042 0.7916452 
0.57424307 0.21402185 0.79021484 
0.588747 0.17136197 0.7899444 
0.60625505 0.15786166 0.77944505 
0.6266446 0.15720166 0.7632852 
0.6419087 0.14336115 0.75326025 
0.6510258 0.10671672 0.7515165 
0.6647557 0.061099153 0.74455816 
0.6973075 0.03732665 0.7157995 
0.7456769 0.06540817 0.66308963 
0.7773978 0.13684997 0.61394197 
0.7566937 0.17191598 0.63076115 
0.6735482 0.039815843 0.73807013 
0.55842537 -0.27772522 0.7816841 
0.5941862 -0.45577815 0.66272855 
0.8494402 -0.21982445 0.47971722 
0.8933043 0.4430313 0.07570277 
0.54410964 0.82189816 -0.1686063 
0.2752082 0.9338146 -0.22858444 
0.14117604 0.9623677 -0.23220202 
-0.05919859 -0.98766965 0.14492849 
-0.08674463 -0.9926555 0.08432352 
-0.08636046 -0.9960269 0.021737376 
-0.2817588 -0.95006794 0.13410091 
-0.6974459 0.56049716 0.44655597 
-0.028288309 0.8936422 0.4478879 
0.3291404 0.7218625 0.60875386 
0.39338815 0.4314746 0.81183463 
0.35876727 0.30611834 0.88180363 
0.39936462 0.36713296 0.8400722 
0.49312478 0.4458254 0.74703926 
0.5796415 0.45992225 0.6726718 
0.637966 0.42322642 0.6433342 
0.6698536 0.3725245 0.64227855 
0.6877651 0.337351 0.6427858 
0.703264 0.3274805 0.6310122 
0.7189853 0.32881 0.61232686 
0.7329793 0.31881976 0.60091215 
0.74574953 0.28881782 0.60036814 
0.7626051 0.24992476 0.5966331 
0.78940916 0.22933207 0.5694209 
0.81974244 0.25556344 0.51255214 
0.8307172 0.32310808 0.4533322 
0.8111322 0.36639735 0.45587003 
0.7788992 0.27425906 0.564002 
0.7389224 -0.01745404 0.67356455 
0.76257503 -0.24628574 0.59818286 
0.9202195 -0.0649863 0.38597015 
0.87704146 0.48011255 0.017035687 
0.5580203 0.81070125 -0.1771355 
0.32099244 0.9227031 -0.21350147 
0.20539436 0.95622265 -0.20845003 
-0.11126697 -0.9849126 0.13253993 
-0.24009189 -0.9682762 0.069261655 
-0.4124651 -0.90976727 -0.046862382 
-0.9340922 -0.3146519 -0.16871837 
-0.31425792 0.9239711 0.21798941 
0.22777751 0.9162982 0.32941633 
0.49654353 0.6997994 0.51354194 
0.5508068 0.47889316 0.6835739 
0.5379328 0.4289988 0.72566414 
0.56524676 0.50403476 0.65302765 
0.6199347 0.5660115 0.54342616 
0.67561275 0.5718482 0.46533552 
0.7206736 0.5413352 0.43311185 
0.7506604 0.50342834 0.4278654 
0.7681404 0.4791668 0.4246876 
0.77871484 0.47453654 0.41038805 
0.78693116 0.47835344 0.3897658 
0.7963116 0.4739456 0.37585017 
0.8089911 0.45483524 0.37236863 
0.82557875 0.42823032 0.36747596 
0.8438221 0.41326883 0.34230554 
0.85390365 0.43286335 0.28892568 
0.84227043 0.48791805 0.22916493 
0.81599456 0.53671926 0.21467495 
0.8143297 0.50538 0.28540903 
0.8573347 0.32744393 0.3971873 
0.91450655 0.10788726 0.38992068 
0.96585643 0.15500437 0.20759365 
0.87729615 0.47662902 -0.056359094 
0.64371073 0.7436551 -0.18059254 
0.45701453 0.87076384 -0.18140617 
0.3597825 0.91987526 -0.15616031 
-0.17466481 -0.9845771 0.010013942 
-0.40758482 -0.91313386 -0.007827267 
-0.6965582 -0.71176875 0.09051007 
-0.6040754 0.79115313 0.0957591 
0.07415598 0.9801573 0.18382733 
0.46147525 0.83102036 0.3105572 
0.63916236 0.60088795 0.48000532 
0.66705245 0.45236272 0.5919537 
0.6632797 0.46709332 0.58470845 
0.6793689 0.5486309 0.4873009 
0.7089587 0.59552586 0.37779185 
0.74471 0.5931749 0.30586052 
0.77857095 0.56408405 0.27502087 
0.8030058 0.5329265 0.26677895 
0.81656206 0.51544744 0.25988543 
0.82220507 0.51451993 0.24340953 
0.82470286 0.5203557 0.22157475 
0.8291819 0.51985246 0.2054528 
0.83820593 0.5079172 0.19857223 
0.85106456 0.48874715 0.1918732 
0.8633313 0.47524816 0.16970067 
0.8645981 0.48715732 0.1230774 
0.84327245 0.5335096 0.06526156 
0.8059836 0.59094757 0.034226518 
0.7919755 0.60740775 0.061893355 
0.8368023 0.5321385 0.12880482 
0.9123079 0.38185513 0.14792193 
0.9472472 0.31575122 0.054991618 
0.9040589 0.4206229 -0.075855315 
0.80415154 0.58388174 -0.11145614 
0.7105019 0.70221996 -0.045544684 
0.64829254 0.7608615 0.02840301 
-0.41816616 -0.90774786 -0.033628684 
-0.8618699 -0.4919886 -0.122995004 
-0.734125 0.66629994 0.13078615 
-0.043862075 0.9866048 0.15712152 
0.39968318 0.8866005 0.23279391 
0.6439129 0.66975087 0.36987844 
0.72830844 0.4635115 0.504702 
0.7319768 0.3943075 0.55563617 
0.734989 0.4549778 0.50277877 
0.74945414 0.5335777 0.3919356 
0.7720397 0.565033 0.2910197 
0.80131173 0.55212855 0.23033367 
0.82948035 0.5193451 0.20553134 
0.8490004 0.48976064 0.19832517 
0.8589202 0.4754388 0.1902997 
0.8622854 0.47615707 0.17244872 
0.86308587 0.48250002 0.14925313 
0.86523867 0.48378834 0.13157122 
0.87104124 0.47544834 0.123434305 
0.88084894 0.45847765 0.11791277 
0.89197683 0.44055694 0.10142551 
0.8955367 0.44068646 0.061721724 
0.8778459 0.4789416 0.0013317759 
0.83397996 0.54935896 -0.051790446 
0.7905567 0.609166 -0.062744446 
0.7922635 0.6093261 -0.03225097 
0.84532785 0.5342413 -0.0026845639 
0.90163755 0.43241674 -0.008099039 
0.9302273 0.36697716 -0.0022235885 
0.94252795 0.3154107 0.11025939 
0.91713196 0.22044411 0.33207422 
0.8546302 0.13770093 0.5006454 
-0.738844 0.42822614 0.52031916 
-0.46346033 0.78137374 0.41792285 
-0.008189766 0.9522224 0.30529585 
0.37761995 0.88348514 0.27723143 
0.62508 0.6993656 0.3466451 
0.74072 0.48707438 0.46270132 
0.76027274 0.35354498 0.54496914 
0.76004 0.3572095 0.5429001 
0.7727182 0.4367263 0.46062672 
0.7922356 0.49900362 0.35122365 
0.8173183 0.51087 0.2664633 
0.8461598 0.48486325 0.22118159 
0.8707094 0.44665462 0.20582741 
0.8856969 0.4178042 0.2024367 
0.8929435 0.4056803 0.19512898 
0.8964631 0.40621606 0.17703846 
0.89873475 0.41082808 0.15328503 
0.9010407 0.41221955 0.13491009 
0.90473175 0.40657878 0.12709945 
0.91198325 0.39052653 0.12560135 
0.92348605 0.36474794 0.118880086 
0.93388087 0.34589502 0.09068159 
0.93021566 0.36579034 0.02993957 
0.895208 0.44290417 -0.049381882 
0.83047867 0.5470332 -0.10516692 
0.77826804 0.61812866 -0.11052507 
0.77960986 0.62129134 -0.07877612 
0.83122253 0.5555162 -0.02169735 
0.90225786 0.41806215 0.105616406 
0.91274947 0.13559589 0.38536 
0.66023535 -0.3204082 0.6792849 
0.3830415 -0.58801955 0.712399 
-0.09624655 0.72877896 0.6779512 
0.12750864 0.8030021 0.5821762 
0.39779142 0.7895466 0.4673096 
0.6034044 0.67536086 0.42401767 
0.7232484 0.51451373 0.46063817 
0.7640339 0.37444717 0.5253965 
0.76700443 0.3230713 0.5543729 
0.77539194 0.36343676 0.51641184 
0.79491836 0.43020505 0.4278183 
0.8190846 0.46506214 0.3358835 
0.84690535 0.45586494 0.27374923 
0.8742419 0.41863325 0.24586041 
0.8938322 0.3787174 0.24007751 
0.9039265 0.35398427 0.24002515 
0.90894514 0.3452195 0.23375659 
0.9135311 0.34422082 0.21673274 
0.91847384 0.34467298 0.19392365 
0.9219642 0.34507665 0.17579548 
0.92394483 0.34353092 0.16826294 
0.9278104 0.33173153 0.17065239 
0.93723655 0.3011001 0.17585897 
0.9509702 0.2609985 0.1659383 
0.9614333 0.24895047 0.11691809 
0.9504973 0.3099563 0.021952264 
0.89257574 0.44320652 -0.08292508 
0.80134076 0.5816311 -0.1398509 
0.7372386 0.6632638 -0.12868775 
0.7389764 0.6717375 -0.051794358 
0.7980153 0.58773154 0.13320369 
0.80676234 0.289367 0.51517123 
0.42431796 -0.34083006 0.8389214 
0.060565084 -0.68548614 0.72556233 
0.106228806 0.43786266 0.89274395 
0.30879238 0.51359445 0.8005424 
0.52385765 0.5527152 0.6481352 
0.66393644 0.51403314 0.5431007 
0.73763895 0.4371175 0.5146038 
0.76644385 0.37534678 0.521228 
0.778279 0.36463368 0.51119864 
0.79314333 0.39608628 0.4626439 
0.8138973 0.42965424 0.3911118 
0.83855665 0.43556544 0.32726988 
0.8648071 0.41048592 0.289154 
0.88716567 0.369723 0.27611965 
0.9007498 0.33520505 0.27620173 
0.90663093 0.31863987 0.2765665 
0.910037 0.31440586 0.27015114 
0.9154296 0.31125468 0.255165 
0.9224035 0.30625668 0.2353266 
0.9270351 0.30504364 0.21807 
0.927832 0.30889556 0.20907246 
0.92817676 0.30587274 0.21196656 
0.93332726 0.27892488 0.22605574 
0.94501567 0.2263924 0.23599154 
0.9608056 0.18075912 0.21018732 
0.9715795 0.20258045 0.12245223 
0.9447109 0.32764232 -0.0131079815 
0.85197556 0.5073775 -0.12925027 
0.7399708 0.65211976 -0.16487296 
0.6793803 0.72534496 -0.11098247 
0.68994117 0.7218608 0.053834755 
0.708407 0.56916195 0.41738996 
0.43760997 0.030250037 0.898656 
0.02669396 -0.47494817 0.87960887 
-0.035009775 0.027024448 0.99902153 
0.21245468 0.22415125 0.9511147 
0.4887203 0.42376736 0.7626097 
0.6500348 0.49173766 0.57935214 
0.7320718 0.47900078 0.48438546 
0.7740263 0.44652182 0.4488894 
0.79736567 0.42668453 0.4267885 
0.8154881 0.4235322 0.39446127 
0.8346756 0.42180616 0.35411346 
0.8557958 0.40658867 0.3198427 
0.8762654 0.3761333 0.30113584 
0.8917954 0.34155887 0.2967132 
0.90011936 0.31833237 0.29740477 
0.9033611 0.31135884 0.29494822 
0.9059259 0.3109924 0.28737065 
0.9115706 0.30558914 0.27505338 
0.91942936 0.29556578 0.25940433 
0.9247884 0.2922159 0.24367239 
0.92519397 0.3004645 0.23181276 
0.92296684 0.30794495 0.23087277 
0.92372817 0.29260343 0.2472037 
0.93149316 0.24228857 0.2713241 
0.9461817 0.17700903 0.2709392 
0.9655138 0.15678096 0.20785281 
0.9674505 0.24200255 0.0739895 
0.9044336 0.419123 -0.07959814 
0.78497434 0.59634596 -0.1678897 
0.6881981 0.70883167 -0.15472941 
0.6627214 0.74820304 -0.031506706 
0.6837962 0.68134505 0.26113528 
0.56567484 0.33460456 0.7536922 
0.21406086 -0.16968988 0.9619685 
-0.16494825 -0.1352725 0.9769818 
0.11864357 0.15635355 0.9805495 
0.4568163 0.4612703 0.7606238 
0.639852 0.567399 0.5183125 
0.7317906 0.56043077 0.38781428 
0.7860777 0.51438785 0.34276384 
0.81964207 0.46429005 0.33559152 
0.840898 0.42584834 0.3339818 
0.8571028 0.39871204 0.32619572 
0.87171257 0.3750365 0.31538066 
0.88444436 0.35068172 0.3078648 
0.89347637 0.3296775 0.3049799 
0.89837515 0.3190705 0.30185467 
0.90077674 0.31882378 0.29487738 
0.9032928 0.31993994 0.28583324 
0.90863305 0.31273803 0.2767324 
0.91612196 0.29946765 0.26653296 
0.9216648 0.29392537 0.25326297 
0.92252713 0.30347192 0.23842919 
0.91939807 0.3182475 0.23114 
0.91683584 0.3167229 0.2431022 
0.92065525 0.2801951 0.27181742 
0.93269515 0.21484171 0.2896945 
0.95208484 0.1691222 0.2548182 
0.96685565 0.21041135 0.1446282 
0.93527085 0.3537632 -0.010956632 
0.8391297 0.52814454 -0.13009562 
0.7406379 0.65465355 -0.15127532 
0.70407087 0.70789075 -0.056347273 
0.7260371 0.657866 0.20020624 
0.6597682 0.3716964 0.6531062 
0.37027368 -0.06817141 0.9264179 
-0.144863 -0.07513703 0.98659474 
0.16101989 0.2558055 0.9532241 
0.48997593 0.55738723 0.6702561 
0.65333265 0.6385498 0.40670708 
0.7412269 0.6111273 0.27767977 
0.80285627 0.5426536 0.24687836 
0.8444017 0.46530858 0.26546904 
0.86696005 0.40214753 0.29437673 
0.8779448 0.3631484 0.31198734 
0.8847378 0.34336647 0.3151804 
0.89026487 0.33307138 0.31063187 
0.8946472 0.3274404 0.30395603 
0.89802146 0.3260101 0.29542312 
0.90086323 0.32757968 0.28484583 
0.9039068 0.32734495 0.27531382 
0.9084996 0.319283 0.26960525 
0.91453063 0.3057149 0.26490054 
0.9196959 0.2986713 0.2548625 
0.9215796 0.30613342 0.23869102 
0.91914314 0.3226575 0.22598262 
0.91496015 0.3311838 0.23057611 
0.9152592 0.3115059 0.25546965 
0.924093 0.25968173 0.28038833 
0.9408257 0.20969668 0.2662221 
0.9572383 0.22338457 0.18383162 
0.94282395 0.32978305 0.048230268 
0.8737145 0.48100817 -0.07248479 
0.79173315 0.6013755 -0.10726754 
0.7588074 0.6510036 -0.02014384 
0.77480626 0.5854498 0.2385873 
0.68135375 0.2727485 0.67923886 
0.37761277 -0.1486819 0.9139488 
-0.02256086 0.024508005 0.999445 
0.28274053 0.348956 0.89346945 
0.5575885 0.6074342 0.56579036 
0.6838015 0.6615225 0.30790183 
0.76093864 0.61914945 0.19397524 
0.8249373 0.53512615 0.18198483 
0.8696044 0.44003466 0.22395925 
0.88943905 0.3645251 0.27571672 
0.8935725 0.32589406 0.30874136 
0.8934362 0.31819537 0.3170546 
0.8940819 0.3236376 0.309639 
0.8960957 0.3294687 0.2974272 
0.8994075 0.33149526 0.28491592 
0.9033053 0.3305857 0.27340952 
0.9067443 0.32781196 0.26524386 
0.91023356 0.32026738 0.26249498 
0.9144705 0.30864373 0.26169208 
0.9187312 0.30160174 0.2548913 
0.92139727 0.30569354 0.2399554 
0.9205759 0.31917825 0.22508949 
0.91663724 0.33136335 0.22354975 
0.9147544 0.3241741 0.24111305 
0.92021006 0.2891767 0.2637999 
0.9332077 0.24912745 0.25895768 
0.94665104 0.2550549 0.196974 
0.9371356 0.33851653 0.084756024 
0.88416547 0.4666708 -0.021676842 
0.8173056 0.5738141 -0.052430663 
0.788186 0.61405593 0.041207314 
0.7874464 0.5286033 0.31702805 
0.63317895 0.17672998 0.7535588 
0.29108438 -0.24185182 0.9256229 
0.0919883 0.040315576 0.9949437 
0.3909746 0.35758185 0.8481003 
0.6232259 0.60091907 0.50048554 
0.71932554 0.6488477 0.24812801 
0.785249 0.6019689 0.14497381 
0.84743625 0.5101777 0.14686918 
0.890205 0.406744 0.20516944 
0.90452075 0.3295291 0.27065253 
0.902336 0.29939586 0.3100836 
0.89783555 0.3056245 0.31699353 
0.8964098 0.32254067 0.3040016 
0.89825 0.3328926 0.28693143 
0.90242076 0.33279148 0.2736542 
0.9071085 0.32690865 0.26511315 
0.9104969 0.32119486 0.2604405 
0.9125849 0.31596923 0.2595233 
0.9147218 0.30960238 0.25967363 
0.91769904 0.30457225 0.2550769 
0.92054737 0.30513456 0.24389662 
0.92112195 0.31296384 0.23149078 
0.91872835 0.3226842 0.22762491 
0.916852 0.3203141 0.23828858 
0.92024857 0.29761326 0.25410417 
0.92967457 0.27157843 0.24889879 
0.9387009 0.28322545 0.19652979 
0.92754996 0.35984126 0.1008243 
0.87968135 0.47546253 0.009811458 
0.8191374 0.57348365 -0.011424787 
0.7878968 0.6091256 0.090469494 
0.7674521 0.518799 0.3766497 
0.5698303 0.15868345 0.8062959 
0.20938458 -0.2555066 0.9438615 
0.14591669 -0.021759517 0.98905754 
0.45231488 0.30835518 0.83685625 
0.67060316 0.56935424 0.4755283 
0.7487008 0.6256663 0.21906361 
0.80555844 0.5804493 0.118971184 
0.8642823 0.4863162 0.12850161 
0.90347904 0.3810514 0.1962795 
0.9127815 0.30757657 0.26875043 
0.90646595 0.287353 0.3094315 
0.8999662 0.3037633 0.31271228 
0.8982434 0.32596898 0.29479307 
0.90107614 0.3353506 0.27495787 
0.906189 0.3306266 0.263643 
0.9109784 0.31993783 0.2603042 
0.91389424 0.3116945 0.2600843 
0.91453195 0.30979925 0.26010716 
0.91454065 0.31065062 0.2590591 
0.9161391 0.30883324 0.25556046 
0.918676 0.30661437 0.24904236 
0.9197478 0.3091528 0.24184413 
0.9188822 0.3136422 0.23934107 
0.91839916 0.30996513 0.2458958 
0.92152095 0.2927494 0.25514084 
0.928905 0.27736995 0.24535964 
0.93427604 0.29865795 0.19476102 
0.9197284 0.37759188 0.10735054 
0.87133694 0.48998344 0.026235072 
0.8108267 0.5851669 0.011824088 
0.7740128 0.6223343 0.11663776 
0.7392392 0.5412491 0.40071785 
0.53123367 0.20293742 0.8225613 
0.17505705 -0.20220287 0.963571 
0.15840244 -0.09150202 0.9831257 
0.47873607 0.25882703 0.8389401 
0.69745374 0.5456073 0.46461925 
0.76512206 0.61208403 0.19985351 
0.81587344 0.56973 0.09878459 
0.87272686 0.4753562 0.11128476 
0.91073585 0.36973068 0.18400922 
0.9181985 0.29845193 0.26045725 
0.9102284 0.28291112 0.3023998 
0.90287596 0.303386 0.30458483 
0.9010513 0.32653752 0.28544703 
0.9041701 0.33426982 0.26597014 
0.90938854 0.3268552 0.25725117 
0.91375136 0.31409985 0.25768176 
0.91599566 0.30556625 0.25996396 
0.91556555 0.3060647 0.26089108 
0.91410303 0.31093502 0.26025972 
0.914663 0.31153506 0.2575609 
0.91664994 0.30900282 0.25351578 
0.9174545 0.30925053 0.25028268 
0.9169579 0.31051522 0.25053668 
0.91715664 0.30455354 0.2570427 
0.9205612 0.2879386 0.26392925 
0.9273963 0.27689078 0.2515304 
0.93137556 0.3035143 0.20104387 
0.91544384 0.38501447 0.117160305 
0.8666959 0.49717456 0.040691894 
0.80516696 0.59234494 0.028876944 
0.76306796 0.63250875 0.13289134 
0.7188637 0.5614736 0.40985665 
0.5134217 0.24888934 0.82125044 
0.17064752 -0.14180537 0.97507477 
0.16272318 -0.11912927 0.9794537 
0.49188653 0.24702105 0.83488214 
0.70776886 0.5465337 0.4476205 
0.76736736 0.61618 0.17739682 
0.81480914 0.574844 0.075102575 
0.8727943 0.48011962 0.08783775 
0.9137221 0.37242475 0.16251685 
0.923309 0.29825303 0.24196212 
0.9161122 0.27990505 0.28703976 
0.90860623 0.29819673 0.29242706 
0.9061703 0.31972042 0.2768291 
0.90825737 0.32696626 0.26107782 
0.91211516 0.32099774 0.25496376 
0.91498387 0.311377 0.25661066 
0.9159871 0.30590972 0.25959024 
0.91533124 0.30645972 0.26124904 
0.9143601 0.3091828 0.26144174 
0.91471374 0.30988732 0.25936216 
0.9154947 0.31046134 0.25589722 
0.9148774 0.31378454 0.25404468 
0.913147 0.3162182 0.25723284 
0.9125516 0.3093184 0.26752913 
0.9157206 0.29065233 0.2774475 
0.92283493 0.27749372 0.2671573 
0.92790693 0.30197564 0.2186309 
0.9142423 0.38135162 0.13686466 
0.8684033 0.4919934 0.061791852 
0.8079242 0.5871709 0.049888283 
0.76256204 0.62859935 0.15284644 
0.71062136 0.5603624 0.42545435 
0.50236607 0.25854304 0.82509625 
0.16858548 -0.11910499 0.97846466 
0.16858645 -0.11910491 0.9784644 
0.502367 0.2585433 0.82509565 
0.71062165 0.5603622 0.42545402 
0.76256216 0.6285992 0.15284628 
0.8079244 0.5871706 0.049887832 
0.86840326 0.49199346 0.061791986 
0.91424245 0.38135174 0.1368643 
0.9279069 0.30197588 0.21863107 
0.92283493 0.27749375 0.26715752 
0.91572064 0.29065192 0.27744773 
0.9125515 0.3093184 0.26752937 
0.91314685 0.31621814 0.25723314 
0.91487724 0.31378454 0.25404498 
0.91549474 0.31046095 0.2558975 
0.91471374 0.30988678 0.25936252 
0.91436005 0.3091826 0.2614418 
0.91533136 0.30645955 0.26124892 
0.9159872 0.30590987 0.2595897 
0.9149838 0.31137738 0.25661036 
0.9121152 0.3209978 0.25496346 
0.90825754 0.32696643 0.2610774 
0.90617007 0.31972057 0.27682948 
0.90860605 0.29819715 0.29242685 
0.91611207 0.27990526 0.28703982 
0.9233089 0.29825336 0.24196212 
0.9137221 0.37242484 0.16251682 
0.8727941 0.48011974 0.087837934 
0.8148091 0.5748442 0.07510283 
0.76736724 0.61618 0.17739703 
0.70776874 0.5465338 0.4476207 
0.4918856 0.24702132 0.8348827 
0.16272202 -0.11912884 0.97945386 
0.17064872 -0.14180495 0.9750746 
0.5134225 0.24888965 0.82124996 
0.7188643 0.5614734 0.4098558 
0.7630678 0.63250893 0.13289136 
0.8051669 0.5923449 0.028876929 
0.8666959 0.49717444 0.040691633 
0.9154437 0.38501453 0.11716031 
0.9313757 0.3035141 0.20104375 
0.92739654 0.27689046 0.2515303 
0.92056125 0.28793857 0.26392895 
0.9171565 0.30455363 0.25704283 
0.9169578 0.31051525 0.25053698 
0.9174544 0.30925044 0.25028297 
0.9166501 0.30900207 0.25351605 
0.91466284 0.31153527 0.25756118 
0.9141031 0.3109353 0.2602594 
0.91556555 0.30606514 0.2608908 
0.9159958 0.30556634 0.25996363 
0.9137514 0.31409982 0.25768122 
0.9093887 0.32685518 0.25725093 
0.9041701 0.33426994 0.26597 
0.90105116 0.32653773 0.2854469 
0.9028761 0.30338573 0.30458504 
0.91022843 0.28291142 0.3023995 
0.9181985 0.29845223 0.26045692 
0.9107357 0.36973107 0.18400939 
0.8727266 0.4753566 0.11128482 
0.8158729 0.56973064 0.09878467 
0.76512176 0.6120844 0.19985357 
0.6974536 0.5456074 0.46461925 
0.47873506 0.2588274 0.83894056 
0.15840168 -0.0915018 0.98312587 
0.17505817 -0.20220232 0.96357095 
0.53123456 0.2029378 0.8225607 
0.73923945 0.5412492 0.4007174 
0.774013 0.62233406 0.11663747 
0.8108269 0.5851668 0.011823817 
0.8713369 0.48998365 0.026234731 
0.9197284 0.37759206 0.107350186 
0.93427604 0.29865775 0.1947609 
0.92890495 0.2773703 0.2453594 
0.921521 0.29274932 0.25514084 
0.9183991 0.3099651 0.24589576 
0.9188821 0.31364235 0.2393415 
0.9197478 0.30915266 0.2418441 
0.918676 0.30661404 0.24904288 
0.91613907 0.3088332 0.25556076 
0.91454065 0.31065065 0.2590593 
0.914532 0.3097994 0.2601071 
0.91389406 0.31169528 0.2600841 
0.91097844 0.31993815 0.26030362 
0.90618926 0.33062616 0.2636425 
0.9010763 0.33535033 0.27495772 
0.89824337 0.3259691 0.29479316 
0.8999661 0.30376324 0.31271225 
0.9064658 0.28735328 0.30943152 
0.9127815 0.3075767 0.26874995 
0.903479 0.3810515 0.19627917 
0.8642821 0.4863166 0.12850168 
0.8055584 0.5804494 0.11897134 
0.7487005 0.6256667 0.21906374 
0.6706028 0.5693545 0.4755287 
0.45231447 0.30835527 0.8368565 
0.14591557 -0.02175963 0.9890578 
0.20938563 -0.25550678 0.94386125 
0.5698309 0.15868346 0.8062955 
0.7674523 0.518799 0.3766492 
0.7878968 0.6091256 0.09046932 
0.81913733 0.57348377 -0.0114250425 
0.87968135 0.47546235 0.009811096 
0.92754984 0.35984147 0.10082425 
0.93870085 0.2832257 0.19652978 
0.92967457 0.27157864 0.24889837 
0.9202485 0.29761356 0.25410414 
0.9168519 0.32031432 0.23828866 
0.9187283 0.32268414 0.22762525 
0.9211219 0.3129638 0.23149103 
0.9205475 0.30513418 0.24389659 
0.9176991 0.30457217 0.25507706 
0.91472185 0.3096024 0.25967345 
0.9125849 0.3159695 0.25952289 
0.9104969 0.32119521 0.2604402 
0.9071085 0.32690898 0.26511282 
0.9024208 0.33279186 0.27365375 
0.89825 0.3328927 0.28693137 
0.89641005 0.3225406 0.30400124 
0.89783555 0.3056248 0.3169935 
0.902336 0.2993962 0.31008354 
0.9045208 0.3295291 0.27065265 
0.8902051 0.40674382 0.20516934 
0.84743613 0.5101779 0.14686914 
0.78524894 0.601969 0.144974 
0.71932566 0.64884764 0.24812792 
0.62322533 0.6009193 0.50048596 
0.39097372 0.3575818 0.84810084 
0.091987126 0.04031514 0.99494374 
0.2910848 -0.24185202 0.9256227 
0.63317955 0.17672937 0.7535586 
0.7874467 0.5286033 0.31702745 
0.7881862 0.6140559 0.041207273 
0.8173058 0.5738139 -0.052430723 
0.88416535 0.466671 -0.021677217 
0.9371356 0.33851656 0.084755644 
0.94665104 0.25505498 0.19697396 
0.93320775 0.24912722 0.2589574 
0.9202098 0.28917724 0.26379982 
0.9147542 0.32417446 0.24111347 
0.91663724 0.33136326 0.22354977 
0.92057604 0.319178 0.22508946 
0.9213972 0.30569354 0.23995584 
0.91873115 0.30160174 0.2548915 
0.9144705 0.3086437 0.2616921 
0.9102336 0.3202674 0.26249492 
0.9067443 0.32781214 0.2652435 
0.90330523 0.3305862 0.2734089 
0.8994075 0.33149546 0.28491557 
0.8960958 0.32946888 0.2974266 
0.8940819 0.3236379 0.30963856 
0.8934362 0.3181955 0.31705427 
0.8935725 0.3258939 0.3087416 
0.889439 0.364525 0.2757169 
0.8696043 0.4400349 0.2239594 
0.8249373 0.5351262 0.18198507 
0.7609385 0.6191497 0.19397528 
0.6838014 0.66152257 0.3079018 
0.557588 0.6074344 0.5657907 
0.28273952 0.34895608 0.8934697 
-0.022562277 0.024507398 0.999445 
0.37761292 -0.14868213 0.91394866 
0.68135405 0.2727484 0.67923856 
0.7748064 0.5854497 0.23858719 
0.75880736 0.6510036 -0.020144265 
0.79173297 0.60137546 -0.10726806 
0.8737144 0.48100844 -0.07248534 
0.94282395 0.32978314 0.048230026 
0.9572385 0.22338478 0.18383108 
0.9408258 0.20969683 0.26622194 
0.9240931 0.25968167 0.2803882 
0.91525906 0.31150624 0.25546962 
0.91496015 0.33118367 0.23057616 
0.9191431 0.32265735 0.22598273 
0.92157966 0.30613306 0.23869143 
0.9196959 0.2986712 0.25486255 
0.91453063 0.30571482 0.26490065 
0.9084995 0.31928363 0.26960483 
0.90390694 0.32734516 0.2753135 
0.9008632 0.3275802 0.28484535 
0.89802146 0.32601056 0.29542276 
0.8946473 0.32744035 0.30395576 
0.8902648 0.3330716 0.3106316 
0.8847377 0.34336656 0.31518048 
0.87794477 0.36314854 0.31198737 
0.8669599 0.40214753 0.29437706 
0.8444018 0.46530852 0.26546904 
0.8028562 0.5426536 0.2468785 
0.7412268 0.6111273 0.2776801 
0.6533323 0.63855004 0.40670726 
0.4899757 0.55738723 0.6702562 
0.16101895 0.25580534 0.9532243 
-0.14486402 -0.07513727 0.9865946 
0.37027356 -0.06817165 0.9264179 
0.65976846 0.3716961 0.6531061 
0.72603697 0.6578662 0.20020615 
0.70407045 0.70789117 -0.05634735 
0.7406379 0.65465367 -0.15127522 
0.83912945 0.52814466 -0.13009596 
0.93527085 0.35376322 -0.010956964 
0.9668557 0.21041106 0.144628 
0.95208484 0.16912208 0.2548182 
0.9326951 0.21484157 0.2896947 
0.92065513 0.28019482 0.27181783 
0.91683596 0.31672254 0.24310227 
0.91939807 0.31824702 0.23114072 
0.9225271 0.30347186 0.23842971 
0.92166454 0.29392552 0.2532634 
0.91612196 0.29946756 0.26653293 
0.9086332 0.31273794 0.27673236 
0.9032929 0.31994024 0.28583285 
0.9007767 0.31882444 0.29487705 
0.8983751 0.3190709 0.30185437 
0.8934764 0.32967776 0.30497962 
0.88444436 0.3506817 0.3078645 
0.8717125 0.3750365 0.31538072 
0.8571027 0.3987121 0.32619593 
0.84089786 0.42584836 0.33398202 
0.819642 0.4642898 0.33559188 
0.7860777 0.5143878 0.3427642 
0.7317904 0.5604308 0.38781464 
0.6398518 0.56739897 0.51831275 
0.45681584 0.46127024 0.76062405 
0.11864261 0.1563538 0.9805496 
-0.16494921 -0.1352728 0.9769816 
0.21406075 -0.16969007 0.9619685 
0.5656747 0.33460435 0.7536923 
0.6837963 0.6813451 0.26113495 
0.6627215 0.74820286 -0.031506937 
0.6881978 0.7088319 -0.15472978 
0.78497416 0.5963463 -0.16788952 
0.9044333 0.4191235 -0.07959857 
0.9674504 0.24200296 0.07398934 
0.9655138 0.15678127 0.20785274 
0.9461818 0.17700873 0.2709392 
0.9314932 0.24228826 0.2713244 
0.9237281 0.29260334 0.2472039 
0.9229668 0.3079452 0.23087293 
0.92519397 0.30046445 0.2318132 
0.9247884 0.2922157 0.24367268 
0.9194293 0.29556593 0.25940424 
0.9115706 0.30558893 0.2750534 
0.9059261 0.31099215 0.28737038 
0.9033612 0.31135896 0.29494792 
0.9001194 0.31833267 0.29740456 
0.8917952 0.34155932 0.29671282 
0.8762654 0.3761336 0.30113563 
0.8557956 0.40658867 0.3198429 
0.8346756 0.4218057 0.35411385 
0.8154881 0.42353192 0.39446148 
0.7973655 0.42668447 0.42678875 
0.7740263 0.44652152 0.4488897 
0.73207164 0.47900084 0.48438558 
0.6500346 0.49173772 0.57935226 
0.48872018 0.42376742 0.7626099 
0.21245416 0.22415154 0.95111483 
-0.03501051 0.027024595 0.9990216 
0.026694195 -0.4749488 0.8796085 
0.43761024 0.030249996 0.8986558 
0.708407 0.56916195 0.41738975 
0.689941 0.721861 0.053834606 
0.67938024 0.725345 -0.11098268 
0.73997056 0.65212005 -0.16487308 
0.85197544 0.50737774 -0.12925057 
0.94471097 0.32764238 -0.013108018 
0.97157943 0.20258066 0.122452155 
0.96080554 0.18075882 0.21018776 
0.94501567 0.22639215 0.23599175 
0.93332726 0.27892467 0.22605588 
0.9281768 0.30587235 0.21196684 
0.9278318 0.30889603 0.20907256 
0.9270349 0.30504358 0.21807034 
0.9224036 0.30625635 0.23532674 
0.91542965 0.31125453 0.2551649 
0.91003716 0.3144057 0.2701509 
0.906631 0.31864 0.27656624 
0.9007496 0.33520564 0.27620164 
0.8871656 0.36972335 0.27611944 
0.86480725 0.4104858 0.28915378 
0.8385566 0.43556556 0.32726988 
0.8138973 0.42965424 0.39111176 
0.79314315 0.39608642 0.46264422 
0.7782789 0.36463344 0.5111992 
0.7664435 0.3753468 0.5212285 
0.7376389 0.43711743 0.514604 
0.6639361 0.5140331 0.54310125 
0.5238574 0.5527151 0.64813536 
0.30879202 0.51359445 0.8005424 
0.10622852 0.4378624 0.8927441 
0.06056536 -0.68548626 0.7255622 
0.424318 -0.34083036 0.8389213 
0.8067624 0.28936738 0.5151708 
0.7980154 0.5877314 0.13320349 
0.73897624 0.6717377 -0.051794678 
0.73723865 0.66326374 -0.1286875 
0.8013406 0.58163124 -0.13985112 
0.8925758 0.44320652 -0.08292492 
0.9504974 0.30995634 0.021951862 
0.9614332 0.24895056 0.11691839 
0.95097023 0.2609984 0.16593826 
0.93723655 0.3011 0.17585942 
0.9278103 0.33173132 0.1706527 
0.9239448 0.3435311 0.16826308 
0.9219642 0.3450767 0.17579564 
0.9184737 0.34467328 0.19392395 
0.91353106 0.34422076 0.2167327 
0.90894526 0.34521937 0.2337566 
0.90392655 0.35398427 0.2400249 
0.8938322 0.37871733 0.24007735 
0.8742419 0.4186334 0.24586025 
0.84690523 0.4558649 0.27374932 
0.81908447 0.46506214 0.3358836 
0.7949183 0.4302049 0.4278186 
0.7753918 0.36343637 0.51641226 
0.7670041 0.3230716 0.55437326 
0.7640337 0.3744472 0.52539694 
0.7232481 0.51451385 0.46063843 
0.6034042 0.6753607 0.424018 
0.39779124 0.78954643 0.46730983 
0.12750888 0.803002 0.5821763 
-0.09624648 0.7287788 0.6779515 
0.38304156 -0.5880194 0.71239907 
0.66023594 -0.32040825 0.67928433 
0.9127495 0.13559613 0.3853596 
0.90225774 0.4180627 0.10561571 
0.83122253 0.55551636 -0.021697488 
0.7796099 0.6212912 -0.078776255 
0.778268 0.61812884 -0.11052515 
0.83047885 0.5470329 -0.10516715 
0.89520794 0.4429042 -0.049381744 
0.9302158 0.36578998 0.029939843 
0.9338809 0.345895 0.09068192 
0.92348605 0.36474776 0.118880205 
0.91198313 0.39052665 0.12560129 
0.9047316 0.40657884 0.12709983 
0.9010406 0.4122197 0.13491039 
0.8987348 0.41082796 0.15328503 
0.896463 0.40621606 0.17703854 
0.89294344 0.40568036 0.19512959 
0.8856969 0.41780445 0.20243657 
0.87070924 0.44665477 0.20582731 
0.8461598 0.48486328 0.22118153 
0.8173182 0.51087016 0.26646325 
0.79223526 0.49900392 0.35122418 
0.7727182 0.43672618 0.46062657 
0.7600398 0.35720974 0.5429003 
0.76027256 0.3535449 0.5449695 
0.74071956 0.4870746 0.4627018 
0.6250799 0.6993656 0.3466453 
0.3776201 0.88348484 0.2772321 
-0.008189173 0.9522223 0.30529606 
-0.46345943 0.7813743 0.41792327 
-0.7388432 0.42822757 0.5203191 
0.85463023 0.1377012 0.50064516 
0.917132 0.2204444 0.33207402 
0.942528 0.3154109 0.11025894 
0.93022716 0.36697745 -0.0022239308 
0.90163726 0.43241715 -0.008099277 
0.8453276 0.5342415 -0.0026845494 
0.7922636 0.60932606 -0.032251295 
0.79055697 0.6091658 -0.06274418 
0.83397996 0.549359 -0.051790293 
0.8778459 0.47894153 0.0013319028 
0.89553666 0.4406865 0.061722092 
0.8919768 0.44055688 0.10142549 
0.88084906 0.45847747 0.11791299 
0.8710413 0.47544825 0.1234341 
0.86523855 0.48378864 0.13157137 
0.86308587 0.48250005 0.14925326 
0.8622854 0.4761571 0.17244877 
0.85892034 0.4754386 0.19029993 
0.8490002 0.48976076 0.19832537 
0.8294804 0.5193451 0.205531 
0.80131155 0.5521289 0.23033346 
0.77203965 0.5650331 0.29101974 
0.7494539 0.53357786 0.39193565 
0.73498875 0.454978 0.5027788 
0.73197675 0.39430737 0.55563647 
0.728308 0.46351156 0.5047024 
0.6439127 0.66975087 0.3698787 
0.39968315 0.8866004 0.23279445 
-0.04386152 0.9866048 0.15712142 