# OOMMF OVF 2.0
# Segment count: 1
# Begin: Segment
# Begin: Header
# Title: m
# meshtype: rectangular
# meshunit: m
# xmin: 0
# ymin: 0
# zmin: 0
# xmax: 1.6e-07
# ymax: 1.6e-07
# zmax: 5e-09
# valuedim: 3
# valuelabels: m_x m_y m_z
# valueunits: 1 1 1
# Desc: Total simulation time:  4.5368915751296344e-11  s
# xbase: 2.5e-09
# ybase: 2.5e-09
# zbase: 2.5e-09
# xnodes: 32
# ynodes: 32
# znodes: 1
# xstepsize: 5e-09
# ystepsize: 5e-09
# zstepsize: 5e-09
# End: Header
# Begin: Data Text
-0.023481388 -0.99957794 -0.017108938 
0.15353034 -0.9881426 0.0016572324 
0.23958421 -0.969537 0.05096433 
0.2540083 -0.9042345 0.34327787 
0.46832797 -0.13628724 0.8729805 
0.373848 0.8526266 0.36505583 
0.45776582 0.8879667 -0.044337835 
0.832226 0.5134304 -0.20925874 
0.7138118 -0.70033514 -0.0018809114 
0.44671416 -0.8808072 0.15692362 
0.48117158 -0.80819046 0.33956167 
0.7405505 -0.483226 0.46698776 
0.90488493 -0.30022362 0.30174336 
0.8598127 -0.47936404 0.17587611 
0.72506714 -0.6601779 0.19606858 
0.63536465 -0.7205988 0.2775773 
0.58214974 -0.72843874 0.36121836 
0.52012 -0.7594516 0.39077923 
0.46607268 -0.82022184 0.33168134 
0.49005723 -0.8431518 0.2212214 
0.64866966 -0.7497578 0.13073257 
0.8696022 -0.4673257 0.15936993 
0.8699195 -0.32354844 0.37223184 
0.6196903 -0.6759227 0.39888924 
0.36786845 -0.9143683 0.16912568 
0.25565517 -0.9664499 0.024798512 
0.29822594 -0.95033747 -0.088994354 
0.5425872 -0.78218657 -0.3062408 
0.37549964 0.8971469 -0.23265354 
0.1047758 0.9934691 -0.04517975 
0.031032328 0.9992682 0.022363534 
0.017767321 0.9986037 0.049750622 
-0.094899945 -0.9948965 0.034277935 
-0.028614251 -0.9995894 0.0014951135 
-0.08634137 -0.9928685 0.082204305 
-0.28328684 -0.8192372 0.49859715 
0.068712965 0.36187658 0.9296902 
0.17330775 0.92860496 0.32811177 
0.31658363 0.9482387 -0.02486519 
0.6750786 0.7073768 -0.20949231 
0.8923796 -0.44136783 -0.09409194 
0.6993576 -0.70342225 0.12687062 
0.78391606 -0.50944054 0.35488877 
0.9389848 0.100812435 0.3288534 
0.9490584 0.3097484 0.05782776 
0.9933922 0.09571102 -0.06333577 
0.98675036 -0.16224289 -0.00097315287 
0.96079475 -0.24925674 0.12142707 
0.94026697 -0.2413549 0.24009562 
0.90181637 -0.29763675 0.31327263 
0.84735405 -0.45230463 0.27822968 
0.8362107 -0.53304124 0.12891355 
0.93688965 -0.3468838 -0.043697223 
0.9816238 0.1745378 -0.07714478 
0.90069264 0.40039173 0.1686397 
0.91784334 -0.047745552 0.3940609 
0.69142 -0.70139843 0.17314355 
0.44191536 -0.8966642 -0.026538156 
0.4219723 -0.8800262 -0.21792951 
0.6510299 -0.5346693 -0.5387847 
0.3420203 0.91383797 -0.21891136 
0.11022261 0.993821 -0.013066213 
0.05757271 0.99710596 0.04965071 
0.056455195 0.9955456 0.07551068 
-0.117222175 -0.98173445 0.14985533 
-0.17003426 -0.9784831 0.11687263 
-0.42093492 -0.8816572 0.21329409 
-0.85488147 -0.10809399 0.50743806 
-0.3740997 0.7996671 0.4696615 
-0.08147048 0.9863546 0.14306329 
0.11640211 0.98689926 -0.11171617 
0.4463515 0.8327227 -0.32763267 
0.93121064 0.10954745 -0.34762916 
0.98940235 -0.10626814 -0.09894527 
0.92711055 0.36900508 0.06558571 
0.6322805 0.77299666 -0.0519387 
0.5057798 0.83188784 -0.22836265 
0.56295514 0.7509944 -0.34509283 
0.66130215 0.6568564 -0.36224198 
0.70738804 0.63692725 -0.30647337 
0.71202207 0.66322595 -0.23055586 
0.7375105 0.6501489 -0.18271455 
0.80017805 0.5612288 -0.21151175 
0.8068515 0.48912346 -0.33128387 
0.6677581 0.6140529 -0.42075902 
0.45914146 0.83419824 -0.30545467 
0.40718803 0.9085341 -0.093615346 
0.6188325 0.7826632 0.06696797 
0.97180593 0.23520656 0.01646907 
0.8611302 -0.42678955 -0.2762348 
0.6734323 -0.38609037 -0.6304152 
0.4867435 0.4995874 -0.71658444 
0.19584255 0.9633248 -0.18344231 
0.11998897 0.9927611 -0.005304737 
0.15233465 0.98698574 0.051510774 
0.19501771 0.9761401 0.09549224 
-0.06575914 -0.92201746 0.38152298 
-0.2484088 -0.88620186 0.3910749 
-0.6687281 -0.59093595 0.4512178 
-0.7483104 0.4875541 0.4498029 
-0.39105126 0.8935904 0.22039813 
-0.19001175 0.98162127 -0.017759105 
-0.008771044 0.9600764 -0.27960053 
0.282742 0.79768574 -0.5326861 
0.6791775 0.44324306 -0.5850245 
0.77185166 0.49165234 -0.40314153 
0.52114445 0.8177189 -0.24442655 
0.2404806 0.9385154 -0.24770519 
0.12636718 0.9359797 -0.32859278 
0.13324723 0.90273815 -0.40903425 
0.17992891 0.87851435 -0.44253626 
0.20850877 0.881338 -0.42398998 
0.21646181 0.8975124 -0.38420817 
0.23016275 0.9025181 -0.36398652 
0.25016642 0.8855764 -0.39137107 
0.22543555 0.8645979 -0.44905376 
0.123630315 0.8858427 -0.44721192 
0.026552867 0.9411157 -0.33704033 
0.027366046 0.9781551 -0.20606764 
0.13735506 0.9794498 -0.14768802 
0.28991953 0.9208791 -0.26063067 
0.22693752 0.8146275 -0.5337427 
0.0012548311 0.8519261 -0.52366054 
0.0047257226 0.9630236 -0.26937568 
0.046390302 0.99557364 -0.08173855 
0.18005939 0.97917396 -0.09379173 
0.43190327 0.8978755 -0.08531869 
0.59952056 0.8000309 0.022929482 
0.036795996 -0.6196184 0.7840402 
-0.3750277 -0.33242032 0.8653618 
-0.7767188 0.39764193 0.4884555 
-0.53979707 0.8109309 0.22585472 
-0.37033007 0.9286366 0.022129893 
-0.2308224 0.94021726 -0.25042498 
0.012143797 0.8203113 -0.5717884 
0.33741376 0.5438792 -0.76834065 
0.58121794 0.41009992 -0.70285404 
0.5298914 0.665548 -0.5256054 
0.25424492 0.8920036 -0.3737503 
0.03740815 0.9366126 -0.3483641 
-0.056548413 0.9132733 -0.40340325 
-0.065341935 0.8793065 -0.47175282 
-0.040611 0.8614461 -0.50622284 
-0.021528658 0.8676285 -0.49674666 
-0.015776671 0.88408846 -0.46705326 
-0.013715908 0.8921235 -0.45158342 
-0.017561793 0.8824359 -0.47010487 
-0.04872203 0.862666 -0.5034219 
-0.11116107 0.86293954 -0.49292865 
-0.1612042 0.89749706 -0.4105024 
-0.16544034 0.93839663 -0.30338293 
-0.13838184 0.9624059 -0.23372065 
-0.12801921 0.9635316 -0.23498513 
-0.19606458 0.9459941 -0.25817418 
-0.26023796 0.95114297 -0.1661423 
-0.170785 0.98301786 -0.067145295 
-0.009492024 0.9895523 -0.14386146 
0.3227472 0.82114834 -0.47069067 
0.83166796 0.05053969 -0.5529685 
0.79602474 -0.5239992 -0.30293503 
0.520453 0.124340005 0.8447889 
0.07728437 0.7147696 0.6950767 
-0.24030869 0.94315654 0.22958137 
-0.28416765 0.9586921 0.012587242 
-0.28006548 0.9331481 -0.22538434 
-0.10643816 0.8034486 -0.5857827 
0.28724948 0.43884873 -0.85141027 
0.59889066 0.11767118 -0.7921386 
0.68408245 0.26676863 -0.678871 
0.46845296 0.6846242 -0.55842775 
0.16503765 0.875765 -0.45365 
-0.019216783 0.89120436 -0.45319477 
-0.08497013 0.84759784 -0.52379215 
-0.075021386 0.7956194 -0.60113364 
-0.04247893 0.76973045 -0.6369542 
-0.026927883 0.7807595 -0.6242513 
-0.03168231 0.8074672 -0.58906114 
-0.039499044 0.82222724 -0.5677872 
-0.04345112 0.81050307 -0.5841205 
-0.057262886 0.776368 -0.6276733 
-0.09512593 0.75519586 -0.6485603 
-0.1478182 0.78813314 -0.5974914 
-0.19667988 0.85557747 -0.4788573 
-0.23766492 0.9070851 -0.34743658 
-0.28298554 0.92671305 -0.24722919 
-0.33663082 0.92796355 -0.15988602 
-0.33602673 0.94000965 -0.058890007 
-0.2218126 0.9739024 -0.04809806 
-0.015713796 0.9565722 -0.291072 
0.35631636 0.33113167 -0.87372226 
0.5338343 -0.70495623 -0.46696654 
0.40212512 -0.89069873 -0.21201667 
0.3934805 0.7311306 0.557334 
0.181153 0.9233343 0.33858138 
-0.017261019 0.9981182 0.058839925 
-0.1606221 0.9767446 -0.14202349 
-0.16892783 0.87040275 -0.46245256 
0.14109454 0.53710365 -0.83163214 
0.585733 0.014035153 -0.8103826 
0.7784928 -0.12698369 -0.61467403 
0.7791026 0.22185381 -0.58632773 
0.47897947 0.671215 -0.5657288 
0.1867274 0.8236734 -0.5354392 
0.048981532 0.8119996 -0.5815992 
0.03916459 0.7357959 -0.6760699 
0.09969752 0.64994234 -0.75341576 
0.15575036 0.6096798 -0.7771952 
0.1625994 0.63174456 -0.7579316 
0.13292979 0.68087673 -0.72023374 
0.108871356 0.7128006 -0.6928653 
0.11963511 0.7005385 -0.70351493 
0.1584774 0.63276535 -0.75795317 
0.1808211 0.54139876 -0.8210914 
0.12737694 0.53403395 -0.8358127 
-0.013441537 0.66642964 -0.7454468 
-0.17760557 0.8208094 -0.54288876 
-0.29023042 0.89836985 -0.32969388 
-0.34311566 0.9238458 -0.16964844 
-0.31761762 0.94622844 -0.061406847 
-0.18062662 0.98094994 -0.071494214 
0.09556877 0.9391055 -0.33007178 
0.54129684 0.040466323 -0.8398573 
0.43594286 -0.84600466 -0.30696884 
0.27585426 -0.94723225 -0.16326512 
0.60835886 0.6996696 0.37464917 
0.5058644 0.83011115 0.2345564 
0.20208544 0.97730154 -0.06358643 
-0.057592615 0.953843 -0.2947315 
-0.052512627 0.7731216 -0.63208026 
0.32372618 0.3508583 -0.87869215 
0.70529115 -0.058510583 -0.70649904 
0.84441495 -0.05392201 -0.53296906 
0.78007305 0.31270817 -0.5419407 
0.49972987 0.648125 -0.5746339 
0.28497103 0.7409199 -0.6081359 
0.22614983 0.6940682 -0.68346596 
0.2901244 0.5798421 -0.76132196 
0.39662257 0.46619672 -0.7907915 
0.46014902 0.42028177 -0.78206533 
0.4505828 0.45334083 -0.76906264 
0.39391375 0.52394205 -0.75519323 
0.3486422 0.5801218 -0.7361435 
0.37022802 0.5797258 -0.72584385 
0.47189945 0.48235676 -0.73799926 
0.5893667 0.28029752 -0.7576808 
0.5939787 0.122682676 -0.7950713 
0.4144371 0.25108323 -0.87475663 
0.0633167 0.6254852 -0.7776627 
-0.20593932 0.8623739 -0.4624935 
-0.2985545 0.9304573 -0.21240182 
-0.2750693 0.95918655 -0.065561004 
-0.13429452 0.99071795 -0.021049598 
0.18055812 0.97797996 -0.10466135 
0.8049605 0.5157691 -0.29329306 
0.5497308 -0.83355534 0.054604072 
0.23051523 -0.972402 -0.036018126 
0.6059104 -0.7844356 0.13241452 
0.8436974 -0.5196789 0.13456832 
0.618928 0.71772736 -0.31905442 
0.1387027 0.87528867 -0.46328333 
0.077283524 0.73309225 -0.67572415 
0.3631731 0.45888805 -0.8108805 
0.6679469 0.24141692 -0.7039637 
0.7676246 0.26833695 -0.5820204 
0.6807077 0.46850652 -0.5631507 
0.51158595 0.62083924 -0.5940021 
0.41502073 0.64107436 -0.64558625 
0.4342119 0.5664281 -0.70044214 
0.5316168 0.44899195 -0.7181852 
0.6299256 0.3520718 -0.6922711 
0.6744904 0.3190383 -0.6657908 
0.6552253 0.35062632 -0.66913456 
0.5913457 0.42086536 -0.6878828 
0.5318774 0.49330676 -0.6882986 
0.54187363 0.5210881 -0.6594241 
0.6564934 0.44122553 -0.6118304 
0.8162702 0.19691962 -0.5430706 
0.858115 -0.10646688 -0.5022983 
0.7466709 -0.15522654 -0.6468288 
0.40842044 0.27179125 -0.87139094 
-0.07515331 0.78381014 -0.61643636 
-0.25587913 0.92762125 -0.27211145 
-0.26646066 0.961252 -0.07066499 
-0.17652197 0.98370844 0.034025203 
0.010359332 0.99417037 0.10732274 
0.31837538 0.88909 0.32887107 
0.24625967 -0.56998146 0.7838861 
0.08371118 -0.97929573 0.18431598 
0.22192249 -0.9750152 0.009784649 
0.45152232 -0.8912832 -0.041736346 
0.7946685 0.38163137 -0.47208 
0.28836852 0.82388663 -0.4879083 
0.12486977 0.81551886 -0.5650988 
0.23507695 0.7224443 -0.6502408 
0.41137975 0.6321991 -0.6565752 
0.5174476 0.5788903 -0.6301858 
0.54272753 0.57149404 -0.615501 
0.5299995 0.5729901 -0.6251263 
0.5364207 0.54274863 -0.64627916 
0.58629835 0.4791876 -0.6531719 
0.66111 0.4077089 -0.6298469 
0.7227484 0.35714945 -0.59167475 
0.74714375 0.34075537 -0.57066816 
0.7273041 0.35960943 -0.58455956 
0.6687357 0.41168776 -0.619117 
0.6020572 0.48560345 -0.63381106 
0.5869689 0.5434836 -0.6000777 
0.677517 0.5161311 -0.5240034 
0.8528628 0.31662232 -0.41518134 
0.94817305 -0.0501978 -0.3137645 
0.87225026 -0.28045663 -0.4006542 
0.6518467 -0.044315767 -0.7570548 
0.0489176 0.6469451 -0.76096594 
-0.2363494 0.9074598 -0.34735543 
-0.28530148 0.95406014 -0.091500394 
-0.23329884 0.97159123 0.03977812 
-0.12126478 0.984217 0.12888697 
0.04054864 0.9502163 0.30894154 
0.22447833 0.4945185 0.83967906 
0.21106088 -0.9449298 0.2501223 
0.108399786 -0.9927541 0.051852856 
0.27886337 -0.94926536 0.14536314 
0.755123 0.6147209 -0.22783239 
0.23537642 0.9257396 -0.29598007 
0.031400234 0.92763484 -0.3721663 
0.032650806 0.88342625 -0.46743134 
0.1330023 0.813285 -0.566461 
0.29541543 0.6949757 -0.65554446 
0.47285664 0.5638912 -0.67707705 
0.587168 0.48539463 -0.6477854 
0.6383599 0.4581911 -0.6185124 
0.66490084 0.4495589 -0.59649295 
0.6894 0.4419697 -0.57392555 
0.71242505 0.43280533 -0.55238587 
0.7243033 0.42407966 -0.54363704 
0.71203464 0.42396843 -0.5596941 
0.6666195 0.4494397 -0.5946617 
0.599834 0.5116128 -0.6151841 
0.5590808 0.5866986 -0.5858442 
0.6084567 0.6099511 -0.5076813 
0.7707473 0.49520004 -0.40090576 
0.9426853 0.16895632 -0.28774688 
0.93347186 -0.1820427 -0.30901566 
0.75833106 -0.14626966 -0.6352473 
0.15565954 0.48697975 -0.8594306 
-0.23822412 0.87244725 -0.42671412 
-0.3201749 0.93883604 -0.12678753 
-0.27936938 0.96002424 0.017503345 
-0.1731947 0.9804112 0.093795545 
0.033583745 0.9789438 0.20134878 
0.5394288 0.6781183 0.49917158 
0.42307055 -0.9057838 0.023816857 
0.10495477 -0.96867025 0.22508343 
0.07485678 -0.5713283 0.81730074 
0.20326221 0.97249323 0.113760546 
-0.02735636 0.990898 -0.1318055 
-0.13589872 0.9594953 -0.2467799 
-0.139908 0.9183509 -0.3702127 
-0.04067379 0.84025455 -0.5406645 
0.20295767 0.6698469 -0.71422225 
0.50960517 0.4587625 -0.72790086 
0.68280864 0.3660413 -0.6322865 
0.7192667 0.3958868 -0.570902 
0.6933652 0.45864984 -0.55577433 
0.6634939 0.5006774 -0.55596596 
0.6548573 0.5121982 -0.5557112 
0.66277593 0.5003108 -0.557151 
0.6660254 0.47972858 -0.571201 
0.6417173 0.47735417 -0.60027665 
0.58426416 0.52037215 -0.6227747 
0.52688843 0.59807205 -0.60390264 
0.5345927 0.6522441 -0.53739023 
0.65505934 0.60828245 -0.4482072 
0.8516977 0.38299406 -0.3576685 
0.9366626 0.030173918 -0.34893087 
0.7931762 -0.059655875 -0.60606337 
0.23350398 0.4054645 -0.8837842 
-0.24679475 0.83151317 -0.49767283 
-0.3556448 0.9168878 -0.18120039 
-0.31781894 0.9476931 -0.029475981 
-0.20763442 0.97736406 0.040590204 
0.06554952 0.98758215 0.14277522 
0.9241091 0.04352207 0.37964228 
0.48727843 -0.8728177 0.027367644 
0.23211941 -0.96486324 0.12312408 
0.39949694 0.2773907 0.8737601 
0.0011258513 0.9888057 0.14920472 
-0.17989969 0.9793513 -0.092234306 
-0.25130227 0.94527596 -0.20808841 
-0.24493705 0.9033965 -0.35196683 
-0.118139945 0.80935574 -0.5753142 
0.2192999 0.57427067 -0.7887464 
0.6083573 0.3081546 -0.73139745 
0.77614284 0.25387532 -0.57719123 
0.7734027 0.36073822 -0.521264 
0.6965284 0.48053277 -0.53285706 
0.625786 0.5467847 -0.55625397 
0.59865505 0.5611626 -0.57158446 
0.6101258 0.5404338 -0.5793772 
0.6318792 0.50290453 -0.5897591 
0.63035935 0.47849944 -0.6112981 
0.58787465 0.5020959 -0.6342737 
0.5254143 0.5730171 -0.62896043 
0.50321865 0.6397691 -0.5809188 
0.57812965 0.63561285 -0.5116273 
0.7454862 0.49425808 -0.44716802 
0.8687132 0.22401479 -0.44176328 
0.7632966 0.11158626 -0.6363386 
0.26630375 0.4340552 -0.86062676 
-0.23110104 0.8017633 -0.5511514 
-0.3625996 0.8984156 -0.24773167 
-0.3371548 0.93600154 -0.10113262 
-0.2591706 0.96411824 -0.05750297 
-0.10830207 0.9938188 0.024391534 
0.56478775 -0.6645777 0.4892355 
0.37362716 -0.91422313 0.1568404 
0.28135294 -0.9595977 -0.003583756 
0.7361792 0.3565404 0.5752558 
0.029147765 0.99510413 0.09443669 
-0.22051404 0.9704832 -0.097652406 
-0.30062965 0.93135124 -0.20544273 
-0.29032362 0.885258 -0.3633599 
-0.134125 0.7733623 -0.61961395 
0.2796367 0.47830948 -0.8324804 
0.6921316 0.19191629 -0.6957888 
0.8323183 0.18784828 -0.52149713 
0.7983897 0.35094973 -0.48929378 
0.68960583 0.4991041 -0.52472746 
0.5994584 0.56911737 -0.56281006 
0.5685184 0.5766762 -0.58671236 
0.58768123 0.54688406 -0.5962789 
0.62353015 0.50023395 -0.6008129 
0.6379946 0.46491966 -0.61385065 
0.6086489 0.47534052 -0.63529354 
0.5498424 0.5352777 -0.6412106 
0.5150886 0.6004622 -0.6116608 
0.56026363 0.60978675 -0.5605934 
0.6882953 0.5112739 -0.51463443 
0.7937265 0.31856248 -0.51818556 
0.70058876 0.24701875 -0.66944546 
0.26732382 0.5009667 -0.8231466 
-0.19175641 0.795033 -0.57545805 
-0.33882117 0.8923503 -0.2981798 
-0.32553515 0.93209606 -0.15882051 
-0.26375008 0.9549038 -0.13636267 
-0.21148972 0.97345614 -0.08749374 
0.16549161 -0.764708 0.6227634 
0.28548807 -0.9206688 0.2662059 
0.37481758 -0.92695636 0.016244838 
0.8422706 0.001372453 0.5390533 
0.042943675 0.9964146 0.072895974 
-0.2257763 0.968355 -0.106365494 
-0.31098402 0.92764103 -0.20681208 
-0.29905546 0.87994754 -0.36913168 
-0.1265115 0.7613815 -0.63584054 
0.31838337 0.44391167 -0.8376004 
0.7250884 0.1581943 -0.67023987 
0.8467187 0.17862134 -0.50116044 
0.79618406 0.3614621 -0.4852175 
0.67662346 0.51085234 -0.530293 
0.5879982 0.57051444 -0.573386 
0.5659749 0.56631815 -0.5991297 
0.5936767 0.5301565 -0.60537773 
0.6338549 0.4850712 -0.60244006 
0.6510022 0.4541376 -0.6082395 
0.626962 0.46261638 -0.6268213 
0.5757128 0.5123248 -0.63724256 
0.545115 0.56604266 -0.6184217 
0.5842443 0.5690461 -0.57865804 
0.6908346 0.478223 -0.5422641 
0.76874155 0.32224336 -0.55244535 
0.6666393 0.29213566 -0.68574697 
0.2688482 0.5362433 -0.8001025 
-0.15378648 0.797154 -0.58386236 
-0.3108819 0.89289457 -0.32571742 
-0.30876935 0.93321943 -0.18374759 
-0.24590242 0.9586341 -0.14336225 
-0.19188944 0.98046285 -0.043256905 
0.07595188 -0.60640347 0.79152155 
0.31469148 -0.8959011 0.31357706 
0.4336283 -0.8941586 0.11156639 
0.64570755 -0.28753236 0.7073803 
-0.022941116 0.99736685 0.06879776 
-0.23006181 0.96655244 -0.11334961 
-0.30703261 0.929893 -0.2025587 
-0.2951935 0.8849045 -0.36028448 
-0.12185304 0.77362424 -0.6218178 
0.31465235 0.47384897 -0.8224725 
0.71292806 0.19682573 -0.6730478 
0.8279084 0.21555458 -0.51778775 
0.77011424 0.38935614 -0.5052978 
0.65477085 0.520819 -0.5477434 
0.58227694 0.5604851 -0.58890575 
0.5777103 0.54094577 -0.6112516 
0.61334914 0.5011242 -0.6104731 
0.6486493 0.46754417 -0.6005469 
0.65592235 0.4552821 -0.60206664 
0.6284404 0.47353625 -0.61711115 
0.58516425 0.51680475 -0.6248966 
0.56993324 0.5539109 -0.60692585 
0.6220734 0.53784275 -0.5689903 
0.72839445 0.43128604 -0.5323852 
0.79166305 0.27496827 -0.5455843 
0.68036294 0.2605878 -0.68498194 
0.288439 0.520587 -0.80361193 
-0.13007124 0.79057336 -0.59839386 
-0.29606423 0.89107364 -0.34399694 
-0.30348635 0.93280154 -0.19436407 
-0.23595107 0.96371454 -0.124826185 
-0.11863335 0.9922527 0.036888342 
0.3026828 -0.43822864 0.846368 
0.40607223 -0.88084143 0.24335967 
0.40607247 -0.8808414 0.24335907 
0.3026834 -0.43822873 0.8463677 
-0.11863303 0.9922527 0.036888156 
-0.23595037 0.96371466 -0.12482621 
-0.30348602 0.9328017 -0.19436388 
-0.29606396 0.89107364 -0.34399703 
-0.13007103 0.790573 -0.5983944 
0.2884394 0.5205866 -0.80361205 
0.6803633 0.26058772 -0.6849817 
0.7916633 0.27496833 -0.54558396 
0.7283949 0.431286 -0.5323846 
0.6220744 0.53784215 -0.5689897 
0.56993467 0.5539101 -0.60692525 
0.585166 0.51680344 -0.6248961 
0.62844163 0.47353506 -0.61711085 
0.65592283 0.45528197 -0.6020661 
0.64864844 0.46754515 -0.60054713 
0.6133476 0.5011252 -0.6104738 
0.57770824 0.5409473 -0.61125225 
0.5822751 0.56048626 -0.5889065 
0.65476984 0.5208194 -0.54774415 
0.77011377 0.3893564 -0.50529844 
0.827908 0.2155545 -0.51778823 
0.71292764 0.19682623 -0.6730481 
0.3146516 0.47384956 -0.8224726 
-0.121853516 0.7736245 -0.6218174 
-0.29519364 0.8849044 -0.36028463 
-0.3070329 0.92989296 -0.20255882 
-0.23006204 0.9665524 -0.11334957 
-0.022941243 0.99736685 0.06879853 
0.64570755 -0.2875314 0.7073807 
0.43362856 -0.89415854 0.111565776 
0.31469163 -0.89590114 0.31357682 
0.075952806 -0.60640305 0.7915217 
-0.19188944 0.98046285 -0.043256503 
-0.24590266 0.95863414 -0.14336182 
-0.30876943 0.9332194 -0.18374763 
-0.31088197 0.89289445 -0.32571745 
-0.15378666 0.7971541 -0.58386225 
0.26884824 0.5362429 -0.80010265 
0.6666394 0.29213595 -0.6857468 
0.7687412 0.32224384 -0.55244535 
0.69083464 0.4782232 -0.5422639 
0.5842453 0.5690458 -0.57865745 
0.5451168 0.5660416 -0.6184211 
0.5757145 0.5123233 -0.63724226 
0.62696344 0.46261516 -0.6268207 
0.65100235 0.45413736 -0.6082396 
0.63385385 0.4850719 -0.60244054 
0.5936749 0.5301576 -0.60537845 
0.5659725 0.56631964 -0.59913033 
0.5879961 0.57051545 -0.57338715 
0.6766221 0.51085293 -0.53029406 
0.7961834 0.36146244 -0.48521858 
0.8467182 0.17862163 -0.50116134 
0.7250878 0.15819505 -0.67024034 
0.31838238 0.44391295 -0.8376001 
-0.12651217 0.7613818 -0.63584006 
-0.2990558 0.8799475 -0.36913162 
-0.3109843 0.92764086 -0.2068119 
-0.2257763 0.9683551 -0.10636505 
0.042943716 0.99641454 0.072896294 
0.8422707 0.0013744303 0.5390531 
0.37481776 -0.9269563 0.016244126 
0.2854889 -0.9206686 0.26620582 
0.16549307 -0.76470715 0.6227641 
-0.21148938 0.9734563 -0.08749294 
-0.26374984 0.9549039 -0.1363624 
-0.32553482 0.9320962 -0.15882029 
-0.3388213 0.89235044 -0.29817942 
-0.19175738 0.79503274 -0.57545817 
0.26732272 0.5009673 -0.8231466 
0.70058817 0.24701905 -0.66944593 
0.7937264 0.31856272 -0.5181856 
0.6882955 0.511274 -0.51463413 
0.5602644 0.60978633 -0.56059307 
0.51509 0.60046136 -0.6116605 
0.5498439 0.5352768 -0.6412102 
0.60865 0.47533932 -0.6352934 
0.6379942 0.46492022 -0.61385065 
0.623529 0.5002352 -0.6008131 
0.58767927 0.5468856 -0.59627944 
0.5685159 0.5766778 -0.5867132 
0.5994563 0.5691184 -0.56281114 
0.6896044 0.49910483 -0.5247287 
0.7983888 0.35094994 -0.4892949 
0.83231765 0.18784843 -0.5214982 
0.6921309 0.19191721 -0.6957892 
0.2796358 0.4783103 -0.8324801 
-0.13412556 0.77336246 -0.61961347 
-0.29032376 0.88525826 -0.36335927 
-0.30062997 0.9313512 -0.20544279 
-0.22051413 0.9704831 -0.09765257 
0.029148031 0.99510413 0.09443682 
0.73617905 0.35654196 0.57525504 
0.281353 -0.9595977 -0.0035847044 
0.37362775 -0.9142229 0.15683989 
0.5647889 -0.6645768 0.48923534 
-0.10830175 0.99381876 0.024392024 
-0.25917053 0.9641183 -0.057502642 
-0.3371552 0.9360015 -0.101132244 
-0.36260003 0.8984155 -0.24773137 
-0.23110202 0.8017635 -0.55115086 
0.26630217 0.43405607 -0.8606269 
0.7632959 0.11158719 -0.6363393 
0.86871296 0.22401522 -0.44176376 
0.74548674 0.49425775 -0.4471676 
0.57813066 0.63561225 -0.51162684 
0.50322026 0.63976824 -0.5809182 
0.52541596 0.57301635 -0.62895983 
0.5878754 0.50209534 -0.63427347 
0.63035905 0.47849968 -0.6112982 
0.631878 0.5029056 -0.58975947 
0.61012363 0.54043543 -0.57937795 
0.5986525 0.56116426 -0.57158554 
0.62578374 0.54678595 -0.5562553 
0.696527 0.48053354 -0.532858 
0.77340174 0.36073855 -0.5212653 
0.7761423 0.2538754 -0.57719195 
0.60835683 0.30815455 -0.73139787 
0.21929966 0.574271 -0.7887462 
-0.118140176 0.8093558 -0.5753141 
-0.24493696 0.90339655 -0.35196677 
-0.25130212 0.9452759 -0.20808811 
-0.17989959 0.9793514 -0.09223408 
0.0011255627 0.9888058 0.14920492 
0.39949694 0.27739146 0.8737598 
0.23211975 -0.9648632 0.12312354 
0.48727882 -0.8728175 0.027366586 
0.9241094 0.043522175 0.3796416 
0.06554956 0.98758215 0.14277555 
-0.20763446 0.977364 0.040590525 
-0.31781873 0.9476933 -0.029475693 
-0.35564542 0.9168877 -0.18119988 
-0.24679542 0.83151335 -0.49767226 
0.23350227 0.40546587 -0.88378406 
0.7931753 -0.059654668 -0.60606456 
0.93666255 0.030174345 -0.3489311 
0.85169786 0.38299397 -0.3576682 
0.6550603 0.60828197 -0.44820654 
0.53459406 0.6522433 -0.53738993 
0.5268898 0.5980712 -0.6039024 
0.5842651 0.52037114 -0.6227746 
0.64171726 0.47735408 -0.6002767 
0.6660244 0.4797291 -0.57120186 
0.6627738 0.5003124 -0.5571521 
0.65485483 0.5122001 -0.55571246 
0.6634919 0.5006786 -0.5559673 
0.6933635 0.45865124 -0.55577534 
0.71926594 0.39588717 -0.57090276 
0.6828078 0.36604187 -0.632287 
0.50960493 0.4587623 -0.7279011 
0.20295784 0.6698467 -0.7142223 
-0.040673703 0.8402545 -0.5406647 
-0.13990827 0.9183507 -0.37021294 
-0.13589875 0.9594955 -0.2467794 
-0.027356822 0.9908981 -0.13180533 
0.20326188 0.9724933 0.11376065 
0.07485635 -0.5713284 0.8173007 
0.1049549 -0.96867025 0.22508332 
0.42307156 -0.9057833 0.023815768 
0.5394299 0.6781173 0.4991717 
0.033584062 0.97894365 0.20134908 
-0.17319474 0.9804112 0.093795724 
-0.27936915 0.96002424 0.017503265 
-0.32017502 0.9388359 -0.12678741 
-0.23822474 0.87244755 -0.42671353 
0.15565805 0.48698142 -0.85942984 
0.7583304 -0.1462687 -0.63524836 
0.93347186 -0.18204272 -0.30901602 
0.9426856 0.16895589 -0.2877463 
0.7707483 0.4951993 -0.4009049 
0.6084583 0.6099501 -0.5076805 
0.55908215 0.5866978 -0.5858438 
0.59983504 0.51161194 -0.61518383 
0.6666195 0.44943938 -0.5946619 
0.71203375 0.42396936 -0.5596945 
0.7243014 0.42408127 -0.54363835 
0.7124227 0.43280703 -0.5523875 
0.689398 0.44197136 -0.57392657 
0.66489905 0.4495604 -0.59649366 
0.6383588 0.4581917 -0.6185131 
0.58716744 0.48539463 -0.6477859 
0.47285664 0.56389076 -0.6770775 
0.29541573 0.69497526 -0.6555449 
0.13300262 0.81328475 -0.5664612 
0.032650933 0.8834261 -0.46743155 
0.031399958 0.9276349 -0.37216592 
0.2353761 0.9257399 -0.29597956 
0.75512254 0.61472166 -0.22783193 
0.27886313 -0.94926554 0.14536276 
0.10839952 -0.99275416 0.051852982 
0.21106178 -0.94492954 0.2501222 
0.22447897 0.49451685 0.83967996 
0.040548928 0.9502161 0.3089419 
-0.121264435 0.98421705 0.12888719 
-0.23329896 0.9715911 0.039778158 
-0.28530124 0.95406026 -0.091499895 
-0.23634975 0.90746003 -0.34735444 
0.048916344 0.6469459 -0.76096535 
0.65184605 -0.044314582 -0.7570555 
0.8722501 -0.2804565 -0.40065432 
0.9481733 -0.05019839 -0.31376362 
0.85286367 0.31662104 -0.41518041 
0.67751855 0.51612973 -0.52400255 
0.58697045 0.5434824 -0.6000773 
0.6020585 0.48560244 -0.6338107 
0.66873556 0.41168755 -0.6191172 
0.7273032 0.3596104 -0.58456004 
0.7471421 0.340757 -0.5706693 
0.7227462 0.35715145 -0.59167624 
0.6611077 0.40771118 -0.6298478 
0.5862966 0.4791889 -0.6531726 
0.5364198 0.54274917 -0.6462795 
0.52999973 0.5729899 -0.6251264 
0.542728 0.5714936 -0.6155009 
0.51744837 0.5788897 -0.6301857 
0.41138056 0.6321985 -0.6565753 
0.23507755 0.7224438 -0.6502411 
0.124870434 0.815519 -0.5650985 
0.2883686 0.82388675 -0.4879081 
0.79466873 0.3816314 -0.47207975 
0.45152208 -0.89128333 -0.04173618 
0.22192243 -0.9750152 0.009784672 
0.083711155 -0.97929573 0.18431604 
0.24625862 -0.56998307 0.78388524 
0.31837532 0.8890902 0.32887053 
0.010359249 0.99417037 0.10732249 
-0.17652187 0.98370856 0.034025107 
-0.26646078 0.96125185 -0.07066457 
-0.25587925 0.9276214 -0.27211115 
-0.07515405 0.78381073 -0.6164355 
0.40842012 0.27179182 -0.87139094 
0.74667114 -0.15522684 -0.6468283 
0.8581155 -0.10646785 -0.5022972 
0.8162714 0.1969183 -0.5430694 
0.6564949 0.44122458 -0.6118295 
0.5418754 0.52108705 -0.6594236 
0.53187835 0.49330586 -0.6882985 
0.59134597 0.42086482 -0.68788284 
0.6552246 0.3506269 -0.669135 
0.6744889 0.31903946 -0.66579175 
0.62992364 0.3520732 -0.6922722 
0.53161484 0.44899312 -0.7181859 
0.43421 0.56642896 -0.7004427 
0.41501957 0.64107525 -0.645586 
0.51158553 0.62083924 -0.59400254 
0.6807078 0.46850622 -0.56315076 
0.76762563 0.26833567 -0.5820197 
0.6679481 0.241416 -0.70396286 
0.3631743 0.45888734 -0.8108803 
0.077284776 0.73309195 -0.67572427 
0.13870311 0.8752887 -0.46328315 
0.6189282 0.71772736 -0.31905404 
0.84369665 -0.5196799 0.13456856 
0.60590994 -0.784436 0.13241418 
0.23051502 -0.9724019 -0.03601853 
0.5497299 -0.83355606 0.05460366 
0.8049596 0.5157699 -0.29329443 
0.18055777 0.97798 -0.10466164 
-0.13429478 0.9907178 -0.02104933 
-0.27506906 0.9591866 -0.06556047 
-0.29855514 0.9304571 -0.21240163 
-0.20593938 0.862374 -0.4624934 
0.06331683 0.6254853 -0.7776627 
0.41443774 0.25108257 -0.8747565 
0.5939797 0.122681506 -0.79507077 
0.58936816 0.28029668 -0.75768 
0.47190118 0.48235607 -0.73799866 
0.37022948 0.5797254 -0.7258434 
0.3486431 0.5801212 -0.73614365 
0.39391452 0.5239417 -0.7551932 
0.45058268 0.45334077 -0.7690627 
0.46014762 0.42028224 -0.7820659 
0.39662108 0.4661972 -0.79079187 
0.29012296 0.579843 -0.76132184 
0.22614887 0.69406843 -0.68346596 
0.28497034 0.74092036 -0.6081357 
0.4997296 0.6481251 -0.5746341 
0.7800737 0.31270766 -0.54194015 
0.8444156 -0.053922977 -0.5329679 
0.7052923 -0.058511805 -0.7064979 
0.32372755 0.3508577 -0.87869185 
-0.052511632 0.77312136 -0.63208055 
-0.05759239 0.95384306 -0.2947317 
0.20208527 0.97730154 -0.063586265 
0.50586474 0.83011097 0.23455648 
0.6083593 0.6996697 0.37464824 
0.27585396 -0.9472323 -0.16326563 
0.43594256 -0.8460049 -0.30696905 
0.54129547 0.040467646 -0.8398582 
0.09556822 0.93910563 -0.33007193 
-0.1806269 0.9809499 -0.07149337 
-0.31761715 0.9462287 -0.061406527 
-0.34311545 0.92384595 -0.16964826 
-0.29023078 0.8983699 -0.3296935 
-0.17760512 0.82080936 -0.54288894 
-0.0134412125 0.6664293 -0.7454471 
0.12737817 0.5340336 -0.8358127 
0.18082276 0.541398 -0.8210916 
0.15847889 0.6327651 -0.757953 
0.11963653 0.7005386 -0.7035147 
0.108872086 0.7128005 -0.6928653 
0.13293016 0.6808763 -0.72023404 
0.16259953 0.63174474 -0.7579314 
0.15574987 0.60968 -0.7771951 
0.09969686 0.6499425 -0.75341576 
0.039163787 0.7357961 -0.6760698 
0.04898056 0.8119997 -0.58159906 
0.18672708 0.8236738 -0.5354388 
0.47897914 0.67121524 -0.56572884 
0.7791033 0.22185336 -0.58632696 
0.7784937 -0.12698409 -0.6146727 
0.58573437 0.014034237 -0.81038165 
0.14109601 0.53710276 -0.8316325 
-0.16892728 0.8704026 -0.4624531 
-0.16062212 0.97674453 -0.14202413 
-0.017260695 0.9981183 0.058839682 
0.18115303 0.9233345 0.33858088 
0.39348066 0.7311311 0.5573333 
0.40212536 -0.8906986 -0.21201728 
0.533834 -0.7049557 -0.46696767 
0.35631493 0.33113322 -0.8737223 
-0.015713964 0.95657223 -0.29107165 
-0.2218123 0.9739024 -0.04809791 
-0.33602643 0.9400097 -0.05888937 
-0.33663094 0.9279635 -0.15988567 
-0.28298566 0.926713 -0.24722908 
-0.2376647 0.9070851 -0.34743658 
-0.1966795 0.8555775 -0.47885746 
-0.14781743 0.788133 -0.59749186 
-0.09512496 0.7551958 -0.6485604 
-0.057261642 0.7763681 -0.62767327 
-0.043450125 0.8105031 -0.5841205 
-0.039498262 0.82222724 -0.56778723 
-0.031681955 0.8074672 -0.58906114 
-0.026928216 0.780759 -0.62425184 
-0.042479116 0.76973027 -0.6369543 
-0.0750216 0.79561937 -0.6011336 
-0.084970266 0.8475978 -0.5237921 
-0.019217268 0.89120454 -0.45319465 
0.16503741 0.87576526 -0.4536497 
0.468453 0.6846247 -0.5584273 
0.68408304 0.26676816 -0.67887056 
0.5988919 0.117670394 -0.7921377 
0.28725114 0.43884823 -0.85141003 
-0.10643735 0.8034484 -0.58578306 
-0.28006524 0.9331479 -0.225385 
-0.28416747 0.9586921 0.012587158 
-0.24030842 0.9431566 0.22958116 
0.07728471 0.7147702 0.69507605 
0.52045286 0.12434197 0.84478873 
0.79602516 -0.5239981 -0.30293566 