# OOMMF OVF 2.0
# Segment count: 1
# Begin: Segment
# Begin: Header
# Title: m
# meshtype: rectangular
# meshunit: m
# xmin: 0
# ymin: 0
# zmin: 0
# xmax: 1.6e-07
# ymax: 1.6e-07
# zmax: 5e-09
# valuedim: 3
# valuelabels: m_x m_y m_z
# valueunits: 1 1 1
# Desc: Total simulation time:  1.7706023207135125e-11  s
# xbase: 2.5e-09
# ybase: 2.5e-09
# zbase: 2.5e-09
# xnodes: 32
# ynodes: 32
# znodes: 1
# xstepsize: 5e-09
# ystepsize: 5e-09
# zstepsize: 5e-09
# End: Header
# Begin: Data Text
-0.82210016 -0.4087284 -0.39634877 
-0.90215844 -0.2857028 -0.32324016 
-0.9702806 -0.1280703 -0.20531353 
-0.9961855 -0.0120652225 -0.08642372 
-0.999386 0.034806177 -0.0040219543 
-0.998657 0.03570019 0.037545774 
-0.99825615 0.025882863 0.053055003 
-0.9978082 0.027288178 0.06028512 
-0.99673295 0.038628805 0.07093182 
-0.9952587 0.048354875 0.084392235 
-0.9939736 0.053572383 0.09563771 
-0.9928914 0.05762057 0.10414742 
-0.99182427 0.061849732 0.11162103 
-0.99074566 0.065868765 0.11867806 
-0.9896747 0.069557965 0.12532224 
-0.9885973 0.07307009 0.13166724 
-0.9874875 0.07651286 0.13789247 
-0.9863186 0.07995333 0.14416358 
-0.9850547 0.08349268 0.15065263 
-0.98366076 0.0872696 0.15746614 
-0.98213583 0.09117073 0.16461204 
-0.98040533 0.094840966 0.1726577 
-0.97805196 0.09948459 0.18307693 
-0.9747876 0.107983746 0.19526616 
-0.9716814 0.11763953 0.2049297 
-0.9700104 0.11864047 0.21214202 
-0.9676815 0.11046873 0.22669189 
-0.9587225 0.1113466 0.26163578 
-0.9335353 0.14890604 0.3260964 
-0.87893 0.23928684 0.41258198 
-0.79246247 0.359698 0.49256545 
-0.70776105 0.453684 0.54152113 
-0.8773331 -0.32585797 -0.35228285 
-0.93660265 -0.21894145 -0.27356938 
-0.9829265 -0.085876055 -0.16272959 
-0.9982318 0.0076804957 -0.058943167 
-0.9990694 0.04186677 0.010369896 
-0.99825644 0.039021477 0.044290055 
-0.99791735 0.030609988 0.056781366 
-0.9973545 0.034959823 0.06373374 
-0.9960062 0.048397128 0.07503014 
-0.9942931 0.05905884 0.08884481 
-0.9928603 0.06494094 0.10005624 
-0.99164116 0.06977073 0.10853484 
-0.99042195 0.07476523 0.11607982 
-0.98919165 0.07946388 0.12322907 
-0.9879738 0.0837823 0.12995505 
-0.98674965 0.08790031 0.13637757 
-0.9854901 0.09193725 0.14267777 
-0.9841664 0.095969744 0.14901854 
-0.9827386 0.10010944 0.15557311 
-0.98116475 0.10452054 0.16245382 
-0.9794471 0.109122925 0.16963385 
-0.9775391 0.11348413 0.17759155 
-0.97499526 0.11865512 0.18789725 
-0.9713418 0.1278883 0.20034951 
-0.9675889 0.13940464 0.21056612 
-0.96553636 0.14314164 0.21737069 
-0.96396184 0.13606651 0.22861245 
-0.9577411 0.13229156 0.25540376 
-0.9389777 0.15538214 0.3068833 
-0.89775425 0.22140369 0.38081184 
-0.8307299 0.31559443 0.45857185 
-0.76030034 0.3922183 0.51779157 
-0.95015204 -0.17589715 -0.2574322 
-0.9768717 -0.10481348 -0.18637572 
-0.9951153 -0.020533053 -0.09656124 
-0.99926996 0.033419456 -0.018512977 
-0.99839604 0.047277834 0.031150278 
-0.9977119 0.040017296 0.05449324 
-0.9973565 0.035277016 0.06352701 
-0.9964817 0.044282943 0.07115655 
-0.99468166 0.059624027 0.08398474 
-0.9926606 0.070429526 0.09830908 
-0.99103296 0.076627016 0.109462194 
-0.9896053 0.08214361 0.11804117 
-0.98815763 0.08779543 0.12584305 
-0.98670506 0.09304996 0.13324702 
-0.98527205 0.097887516 0.14020422 
-0.98383236 0.10251089 0.14685145 
-0.98235375 0.10704292 0.15337174 
-0.98080456 0.11156583 0.15992355 
-0.9791406 0.116193675 0.16668148 
-0.97731 0.12111144 0.17377335 
-0.97531235 0.12630215 0.1811455 
-0.97314465 0.1312553 0.18910761 
-0.9703861 0.13659938 0.19922721 
-0.96632916 0.14575934 0.21204288 
-0.9616394 0.15890282 0.22360563 
-0.9585545 0.16704254 0.23080309 
-0.9573843 0.16342807 0.2381317 
-0.95485425 0.1546668 0.2536366 
-0.94565475 0.15602893 0.2852932 
-0.9241807 0.18100443 0.33634442 
-0.88811284 0.22596891 0.40024188 
-0.84634745 0.26749992 0.46058634 
-0.99078465 -0.032998115 -0.1313661 
-0.99643487 -0.0030290072 -0.084312044 
-0.9991472 0.031539492 -0.026650527 
-0.9985825 0.048691183 0.021496937 
-0.9976497 0.046144452 0.050652467 
-0.9972177 0.038319807 0.06394183 
-0.9967116 0.039563596 0.07071621 
-0.99538684 0.053189363 0.07984896 
-0.9931471 0.069111116 0.09424738 
-0.99095017 0.07877108 0.10868707 
-0.9892454 0.084545985 0.11935482 
-0.9876798 0.09033693 0.12778156 
-0.9860624 0.09626045 0.13570163 
-0.98445207 0.101674505 0.14323536 
-0.9828703 0.10666185 0.15029795 
-0.9812823 0.111444786 0.157052 
-0.9796541 0.116134256 0.16367899 
-0.9779547 0.12080505 0.17032544 
-0.9761394 0.12555817 0.17716381 
-0.974146 0.13059688 0.18434742 
-0.9719678 0.13600664 0.19178322 
-0.96967363 0.1411666 0.1995119 
-0.96694905 0.1459884 0.20903806 
-0.96286744 0.15383917 0.22185546 
-0.9575176 0.16733709 0.23485833 
-0.9531168 0.17987804 0.24333598 
-0.9514517 0.18218628 0.24808851 
-0.95185095 0.17288592 0.25316072 
-0.9515567 0.15736304 0.26415312 
-0.94707066 0.14432408 0.28675362 
-0.93615377 0.13834892 0.32322696 
-0.9196296 0.1388415 0.36742973 
-0.99888045 0.0408127 -0.023924377 
-0.9989733 0.04525648 -0.0020384593 
-0.99839664 0.050081965 0.026383815 
-0.99761575 0.047597587 0.049972583 
-0.99715966 0.040318187 0.063616246 
-0.99677855 0.03772189 0.070778646 
-0.9959315 0.045979574 0.07750087 
-0.9940762 0.062458493 0.088946715 
-0.9916007 0.076380916 0.1043742 
-0.9895266 0.08359196 0.11768395 
-0.9879047 0.08877655 0.12713437 
-0.98629117 0.09464154 0.13517708 
-0.98461646 0.10042172 0.14298923 
-0.9829738 0.1056073 0.15036522 
-0.98136383 0.11042054 0.15726508 
-0.979747 0.11505787 0.16388305 
-0.9780928 0.119602144 0.17038205 
-0.9763739 0.12411983 0.17688489 
-0.97455215 0.1286833 0.18354517 
-0.97256225 0.13346855 0.1905489 
-0.97037 0.13870169 0.1978485 
-0.9680941 0.14389925 0.20515086 
-0.96567655 0.14808692 0.21339898 
-0.9621977 0.15340465 0.22503929 
-0.9569264 0.16475636 0.2390548 
-0.95143026 0.17997867 0.24977617 
-0.9484151 0.18924895 0.25434944 
-0.9494798 0.18541718 0.25319698 
-0.95439506 0.16535133 0.24857391 
-0.96012306 0.13190693 0.24650408 
-0.96254927 0.09412679 0.25424218 
-0.95891976 0.06704917 0.27563998 
-0.9981495 0.04789752 0.037464377 
-0.9979892 0.04592386 0.04368928 
-0.9975598 0.043526962 0.05458912 
-0.9971422 0.03948824 0.06440672 
-0.9967675 0.037640296 0.07097745 
-0.9961145 0.042820837 0.07695662 
-0.9947532 0.055969354 0.0856362 
-0.99252516 0.071493976 0.09890725 
-0.9901905 0.081499234 0.1134932 
-0.9884299 0.086467676 0.12461828 
-0.98693717 0.09131896 0.1327254 
-0.9853494 0.09702525 0.14025962 
-0.98372215 0.10237975 0.1476793 
-0.98214686 0.10714164 0.15462306 
-0.9806025 0.11161079 0.16112648 
-0.979051 0.11593322 0.16738786 
-0.9774682 0.12016496 0.17354071 
-0.9758317 0.1243638 0.17968388 
-0.9741122 0.12857465 0.18594114 
-0.972252 0.13292205 0.19250403 
-0.9701924 0.13771012 0.19940571 
-0.9680445 0.1427336 0.20619622 
-0.96597487 0.1465844 0.21308604 
-0.963373 0.14964451 0.22252856 
-0.959047 0.15700954 0.23574765 
-0.953422 0.17116283 0.24837407 
-0.94905114 0.18523943 0.2549281 
-0.94888115 0.18929183 0.25257307 
-0.9546957 0.17492948 0.24074039 
-0.9644422 0.13975295 0.22432195 
-0.9724875 0.09338715 0.21341716 
-0.9741145 0.057855956 0.21852611 
-0.99789953 0.027453838 0.058676057 
-0.99780446 0.029805698 0.059144653 
-0.99738294 0.033330508 0.06415942 
-0.99681747 0.037183173 0.07051514 
-0.99607354 0.043742266 0.07696805 
-0.9948859 0.0544949 0.0850439 
-0.9930617 0.06809468 0.0958733 
-0.9908044 0.079619154 0.1093962 
-0.98889065 0.08524511 0.12177291 
-0.9875108 0.08868132 0.130223 
-0.98613405 0.09366324 0.13699235 
-0.98459256 0.09917298 0.14402197 
-0.98306763 0.10394442 0.15090908 
-0.9816146 0.10819998 0.1572441 
-0.98018366 0.112276524 0.1631993 
-0.9787446 0.1162311 0.16896555 
-0.97728175 0.12009365 0.17463651 
-0.97577703 0.123922534 0.1802848 
-0.9742123 0.12773736 0.1859934 
-0.9725459 0.13157162 0.19194622 
-0.9706894 0.13576357 0.19831923 
-0.9686934 0.14057857 0.20462401 
-0.9669089 0.1445746 0.21020351 
-0.9651721 0.14614107 0.21699211 
-0.9621634 0.14912532 0.22804269 
-0.9573692 0.15921502 0.2410285 
-0.9525832 0.1736655 0.24985127 
-0.9508498 0.18326153 0.24959977 
-0.9550745 0.17736274 0.2374347 
-0.9645715 0.15006101 0.21698777 
-0.9738672 0.109100044 0.1991981 
-0.9772556 0.07686469 0.19764431 
-0.99801195 0.016540464 0.06081649 
-0.9978074 0.024695689 0.06140533 
-0.9970502 0.036081437 0.06774308 
-0.9959369 0.047430247 0.07655274 
-0.99453473 0.05870193 0.0863408 
-0.992858 0.06948816 0.09697731 
-0.9909335 0.07916264 0.10855519 
-0.9891071 0.08487817 0.120262384 
-0.9878199 0.08737684 0.12875284 
-0.9866789 0.09132925 0.13462447 
-0.985277 0.09686496 0.14087793 
-0.98380554 0.101732425 0.1475712 
-0.9824393 0.10575794 0.15371525 
-0.9811289 0.109561585 0.15931858 
-0.97982246 0.1132698 0.16467567 
-0.9785117 0.11684501 0.16988906 
-0.97718644 0.12032426 0.17501113 
-0.9758286 0.123772345 0.18010831 
-0.97442716 0.12721726 0.18522295 
-0.97297144 0.13059914 0.19044831 
-0.9713831 0.13403946 0.19608252 
-0.9695724 0.13819465 0.20206861 
-0.96783495 0.14273834 0.20717493 
-0.96659416 0.14487113 0.21144274 
-0.96499604 0.14480177 0.21866693 
-0.9617221 0.14908761 0.22992082 
-0.95766324 0.15957086 0.23962112 
-0.9554164 0.16915326 0.24200578 
-0.9578729 0.1679003 0.23299998 
-0.9654356 0.14799011 0.21455333 
-0.97357905 0.11468479 0.19746193 
-0.9767473 0.08791955 0.19553766 
-0.99755234 0.02404373 0.06566079 
-0.997097 0.03498121 0.067631125 
-0.99578935 0.050087024 0.07677825 
-0.9940039 0.06382083 0.08878825 
-0.9921458 0.0739221 0.10090765 
-0.9904723 0.08067588 0.11160716 
-0.9889855 0.08494912 0.1212079 
-0.9878664 0.08698734 0.12865986 
-0.98691434 0.09019118 0.13366286 
-0.9856674 0.09556247 0.1390235 
-0.98426175 0.10049789 0.14535803 
-0.98297846 0.10427064 0.15126511 
-0.981788 0.10774845 0.15646945 
-0.980606 0.11120605 0.16138524 
-0.97942615 0.114527225 0.1661567 
-0.97825176 0.11770605 0.17078906 
-0.97707075 0.120797575 0.17533013 
-0.9758669 0.12384835 0.17984827 
-0.9746272 0.12690435 0.1843829 
-0.9733554 0.12994023 0.18893057 
-0.97203934 0.13283667 0.19363397 
-0.9705646 0.13589038 0.19884212 
-0.9689246 0.13980703 0.20405705 
-0.96759444 0.1433544 0.20787157 
-0.96666193 0.1440608 0.2116867 
-0.96498126 0.14475088 0.21876554 
-0.96239823 0.14984626 0.2265739 
-0.9609237 0.15536647 0.22910058 
-0.9629065 0.15286048 0.222362 
-0.9689933 0.13517527 0.2068325 
-0.9756735 0.10541124 0.19222338 
-0.97810876 0.08132239 0.19154622 
-0.99632424 0.034626167 0.07835317 
-0.9956709 0.04632958 0.08057993 
-0.9939167 0.062264234 0.09084577 
-0.9917378 0.07524871 0.1038931 
-0.98988324 0.08255811 0.11539266 
-0.98855907 0.0859835 0.123926826 
-0.98762 0.087671615 0.13007855 
-0.986827 0.090245925 0.13426909 
-0.9857542 0.09511127 0.13871741 
-0.9844483 0.099966414 0.14445888 
-0.98325014 0.10349196 0.15002891 
-0.9821807 0.10658942 0.15478963 
-0.9811249 0.109752074 0.1592123 
-0.9800682 0.112811014 0.16352372 
-0.97902757 0.115697116 0.1676882 
-0.9779972 0.11846782 0.17171761 
-0.9769652 0.121164106 0.1756657 
-0.9759211 0.12380629 0.17958301 
-0.97485316 0.12642565 0.18351556 
-0.9737549 0.12906095 0.18746915 
-0.9726424 0.13164476 0.19140643 
-0.9715055 0.13403136 0.19548029 
-0.9702492 0.13652998 0.19994013 
-0.968942 0.1395279 0.20416515 
-0.96789294 0.14189093 0.20748556 
-0.9668603 0.14317845 0.2113792 
-0.9655002 0.14574653 0.21579488 
-0.96508276 0.1479387 0.21617016 
-0.9675215 0.14257252 0.20874691 
-0.9731232 0.12398361 0.19406009 
-0.9790132 0.09485949 0.18037435 
-0.98108196 0.07142123 0.17993663 
-0.9950839 0.039256312 0.0909232 
-0.9943429 0.051811114 0.092724554 
-0.9923102 0.06856345 0.1030511 
-0.98994905 0.08123783 0.11576367 
-0.988165 0.08762257 0.12590559 
-0.98707426 0.09011397 0.13252869 
-0.9863476 0.0919496 0.13661554 
-0.985504 0.0955443 0.14019021 
-0.98438865 0.09991724 0.14489874 
-0.9832903 0.103303574 0.14989512 
-0.9823291 0.106070936 0.15420315 
-0.9814016 0.10887776 0.15810272 
-0.98047096 0.11163679 0.16190709 
-0.9795588 0.11421945 0.16558515 
-0.9786675 0.11666691 0.16911188 
-0.9777867 0.1190246 0.17252928 
-0.9769088 0.12131137 0.17587748 
-0.97602785 0.12354057 0.1791852 
-0.97513777 0.12572108 0.18248448 
-0.9742284 0.12787843 0.18581225 
-0.97329813 0.13005671 0.18914557 
-0.9723812 0.13215828 0.19237775 
-0.9715006 0.13391 0.19558832 
-0.97058094 0.1354308 0.19907597 
-0.9695755 0.137271 0.2026824 
-0.96854424 0.1395758 0.20601143 
-0.9676302 0.14232709 0.20841005 
-0.9677726 0.14360462 0.20686695 
-0.97054255 0.13727765 0.19799496 
-0.97601056 0.118271574 0.18279871 
-0.98151577 0.08981188 0.1689992 
-0.98348576 0.0670952 0.16808979 
-0.9941462 0.041420102 0.099788584 
-0.9933204 0.05515653 0.10135237 
-0.9910233 0.07319338 0.1118728 
-0.98843753 0.08654571 0.124503985 
-0.9865737 0.09309784 0.13418345 
-0.98553514 0.09548208 0.14001314 
-0.98484236 0.097407795 0.14351758 
-0.98403543 0.10043442 0.14692597 
-0.9831138 0.10357474 0.15086256 
-0.98224294 0.10623762 0.15463683 
-0.98142564 0.10872133 0.15806198 
-0.98062354 0.111125 0.16133419 
-0.9798415 0.11338071 0.16448578 
-0.9790836 0.11550272 0.16749448 
-0.9783439 0.117525816 0.17038481 
-0.9776165 0.11946539 0.17318806 
-0.9768968 0.121334076 0.1759281 
-0.9761807 0.123145044 0.17862408 
-0.9754656 0.12490147 0.18129161 
-0.97474766 0.12659848 0.1839563 
-0.9740172 0.12827215 0.18664604 
-0.97328615 0.12996921 0.18926725 
-0.9726286 0.13144419 0.19161464 
-0.97206783 0.13225225 0.19389077 
-0.971415 0.13285328 0.19673078 
-0.9705281 0.13457163 0.19991417 
-0.96974725 0.13741308 0.20176235 
-0.97006226 0.13859293 0.19942704 
-0.9728097 0.13241501 0.19001992 
-0.9780149 0.11402251 0.17460153 
-0.98315936 0.0867473 0.16084972 
-0.9850248 0.06511736 0.15964349 
-0.9932776 0.044136904 0.10701181 
-0.99234223 0.058942117 0.10854829 
-0.98975056 0.078212135 0.11948582 
-0.9868798 0.092314854 0.13246202 
-0.9848901 0.09891563 0.14215234 
-0.98388034 0.10094901 0.14761008 
-0.98328674 0.10224932 0.15063961 
-0.9826594 0.104370974 0.15325563 
-0.981935 0.1069062 0.15612386 
-0.9812023 0.10927832 0.1590607 
-0.9805102 0.111362115 0.16185899 
-0.9798582 0.11325593 0.16447161 
-0.97923356 0.11504042 0.1669355 
-0.9786289 0.11673214 0.16929021 
-0.9780421 0.11833267 0.1715548 
-0.9774707 0.11985208 0.17374301 
-0.97691095 0.12130261 0.17587115 
-0.97635996 0.12269339 0.17795402 
-0.97581625 0.12402741 0.17999978 
-0.97528017 0.12529469 0.18201637 
-0.9747476 0.12649791 0.18402557 
-0.97421867 0.12768409 0.18599659 
-0.9737442 0.12875842 0.18773226 
-0.97339344 0.1292814 0.18918681 
-0.9730455 0.12928419 0.19096589 
-0.97246426 0.13009416 0.19336183 
-0.97188985 0.1323034 0.19474606 
-0.9723158 0.1331293 0.1920384 
-0.97495335 0.1269838 0.1825957 
-0.97980756 0.109297395 0.16742562 
-0.98456407 0.08318976 0.15399037 
-0.9862872 0.06256993 0.15271778 
-0.9923703 0.047063682 0.1139572 
-0.991325 0.0627696 0.115476325 
-0.9884376 0.08309995 0.12682866 
-0.98528713 0.09775994 0.14018634 
-0.9831939 0.10426122 0.14986475 
-0.98224413 0.10581281 0.15491986 
-0.9818023 0.106460646 0.15725899 
-0.98134685 0.108068384 0.15899573 
-0.98075676 0.11029064 0.1610966 
-0.980148 0.11227753 0.16341239 
-0.9796037 0.1138697 0.16556033 
-0.97910994 0.115293294 0.16748545 
-0.9786398 0.1166454 0.1692874 
-0.9781886 0.117911875 0.17100838 
-0.97775716 0.11908941 0.172652 
-0.9773431 0.12019066 0.1742264 
-0.9769435 0.12122508 0.175744 
-0.9765566 0.12219787 0.17721441 
-0.976182 0.12310891 0.17864229 
-0.9758203 0.12395126 0.18002994 
-0.9754714 0.12472285 0.18138312 
-0.9751387 0.12543963 0.18267313 
-0.9748582 0.12602174 0.18376632 
-0.9746809 0.1261589 0.18461064 
-0.9745265 0.12585184 0.18563241 
-0.97419685 0.12615103 0.18715398 
-0.97386026 0.1277067 0.18784946 
-0.9744118 0.12804602 0.18473218 
-0.97696346 0.12178642 0.17524415 
-0.98149294 0.10462445 0.1603913 
-0.9858883 0.07953146 0.14730628 
-0.98747796 0.059773497 0.14599468 
-0.99145305 0.049735475 0.120612666 
-0.99030334 0.06627728 0.122093506 
-0.9871277 0.08759006 0.13381624 
-0.98371065 0.10275478 0.1474952 
-0.9815234 0.10918885 0.15712956 
-0.9806415 0.11032718 0.16177212 
-0.9803437 0.11050152 0.1634492 
-0.98002917 0.11174316 0.16448829 
-0.9795668 0.1135976 0.16596521 
-0.9790999 0.11513909 0.16764966 
-0.9787107 0.11627723 0.1691304 
-0.9783726 0.1172692 0.17039667 
-0.9780576 0.11819556 0.171561 
-0.9777627 0.11903759 0.17265645 
-0.9774884 0.11979545 0.17368257 
-0.9772324 0.12048082 0.17464608 
-0.9769928 0.121100836 0.17555554 
-0.97676855 0.12165774 0.17641604 
-0.9765602 0.12214933 0.17722833 
-0.97636867 0.12256736 0.17799342 
-0.9761936 0.12291347 0.17871311 
-0.9760409 0.123199396 0.17934924 
-0.9759454 0.12332803 0.17977975 
-0.9759443 0.123019315 0.17999758 
-0.97595465 0.12234386 0.1804014 
-0.9758092 0.12227817 0.18123056 
-0.9756664 0.12336165 0.18126528 
-0.97632647 0.12328544 0.1777285 
-0.9787957 0.116948836 0.1681729 
-0.98303246 0.10027006 0.15360016 
-0.9871002 0.07612998 0.14084546 
-0.9885722 0.05718288 0.13948226 
-0.9905299 0.05224581 0.1269682 
-0.9892759 0.06959794 0.12841167 
-0.98581153 0.09186288 0.14048792 
-0.9821273 0.10753651 0.15447305 
-0.9798444 0.11393798 0.16408265 
-0.9790288 0.11471856 0.16835192 
-0.9788681 0.1144738 0.16944939 
-0.978696 0.11532803 0.16986336 
-0.97837484 0.11678714 0.17071502 
-0.9780566 0.117911965 0.17176168 
-0.97782266 0.11862608 0.1726 
-0.9776424 0.11919231 0.17322943 
-0.97748625 0.11969393 0.17376436 
-0.9773502 0.120115325 0.17423832 
-0.97723454 0.12045632 0.17465077 
-0.9771377 0.12072746 0.17500569 
-0.97705775 0.12093391 0.17530867 
-0.9769948 0.1210767 0.17556117 
-0.97694963 0.12115141 0.17576076 
-0.9769238 0.12114893 0.17590578 
-0.97691685 0.1210704 0.17599818 
-0.9769339 0.12093081 0.17599984 
-0.97700804 0.12063601 0.1757906 
-0.97717243 0.11991088 0.17537257 
-0.9773426 0.1188394 0.17515299 
-0.97736067 0.118386135 0.17535955 
-0.9773773 0.119050875 0.17481606 
-0.978122 0.11861626 0.1709026 
-0.98050016 0.11224269 0.16131033 
-0.98445725 0.096062414 0.14702344 
-0.98821735 0.07286014 0.13460255 
-0.98957855 0.054711167 0.13319528 
-0.98957855 0.054711193 0.13319536 
-0.98821735 0.07286022 0.13460259 
-0.98445725 0.09606247 0.14702353 
-0.9805002 0.1122427 0.1613104 
-0.978122 0.11861631 0.1709026 
-0.97737724 0.11905088 0.17481607 
-0.9773606 0.11838611 0.17535958 
-0.9773426 0.11883945 0.17515299 
-0.97717243 0.11991089 0.1753726 
-0.977008 0.120635994 0.17579061 
-0.9769339 0.12093084 0.17599984 
-0.9769169 0.12107039 0.17599814 
-0.9769239 0.12114892 0.17590581 
-0.97694963 0.1211514 0.17576076 
-0.97699475 0.12107667 0.17556116 
-0.97705775 0.120933935 0.17530863 
-0.9771376 0.12072747 0.17500566 
-0.9772346 0.1204563 0.17465073 
-0.9773502 0.12011532 0.17423834 
-0.97748625 0.1196939 0.17376436 
-0.9776425 0.11919238 0.17322941 
-0.97782266 0.11862612 0.17259999 
-0.9780566 0.11791194 0.17176166 
-0.97837484 0.11678711 0.17071502 
-0.97869605 0.11532805 0.16986336 
-0.97886807 0.11447383 0.16944939 
-0.97902876 0.11471856 0.16835192 
-0.9798444 0.11393799 0.1640826 
-0.98212737 0.10753646 0.15447308 
-0.98581153 0.09186286 0.1404879 
-0.9892759 0.0695979 0.12841158 
-0.99052995 0.05224574 0.12696813 
-0.9885722 0.05718298 0.13948236 
-0.9871002 0.07613005 0.1408455 
-0.9830325 0.10027017 0.15360023 
-0.9787956 0.11694892 0.168173 
-0.9763264 0.12328544 0.17772856 
-0.97566634 0.12336163 0.18126532 
-0.9758092 0.122278206 0.18123055 
-0.9759546 0.12234389 0.18040144 
-0.9759442 0.123019375 0.17999758 
-0.9759455 0.123328105 0.1797798 
-0.97604084 0.123199366 0.1793492 
-0.9761936 0.12291344 0.17871317 
-0.97636855 0.12256735 0.17799342 
-0.9765602 0.12214934 0.17722832 
-0.9767685 0.12165775 0.17641605 
-0.9769928 0.12110082 0.17555553 
-0.97723246 0.12048081 0.17464605 
-0.97748834 0.11979548 0.17368262 
-0.9777627 0.119037546 0.17265643 
-0.9780576 0.11819558 0.171561 
-0.9783726 0.11726919 0.1703967 
-0.97871065 0.11627726 0.16913037 
-0.9790999 0.11513913 0.1676497 
-0.9795669 0.113597624 0.16596524 
-0.98002917 0.11174316 0.1644883 
-0.98034376 0.11050153 0.16344917 
-0.9806415 0.11032714 0.16177213 
-0.98152333 0.10918883 0.15712951 
-0.98371065 0.102754824 0.14749512 
-0.98712784 0.087590024 0.13381623 
-0.99030334 0.06627721 0.12209343 
-0.991453 0.049735412 0.12061259 
-0.98747796 0.059773587 0.14599478 
-0.98588824 0.07953152 0.14730637 
-0.9814929 0.10462451 0.16039135 
-0.9769634 0.12178652 0.17524423 
-0.9744117 0.12804605 0.18473221 
-0.97386014 0.12770678 0.18784946 
-0.9741968 0.12615104 0.18715405 
-0.9745265 0.12585185 0.18563245 
-0.97468096 0.12615888 0.18461066 
-0.9748582 0.12602176 0.18376637 
-0.97513866 0.12543961 0.18267314 
-0.97547144 0.124722846 0.18138309 
-0.97582036 0.123951264 0.18002987 
-0.9761819 0.123108834 0.17864226 
-0.9765566 0.122197844 0.1772144 
-0.9769435 0.121225104 0.17574398 
-0.977343 0.12019068 0.17422636 
-0.9777572 0.119089454 0.17265204 
-0.97818863 0.11791192 0.17100842 
-0.9786398 0.11664543 0.16928737 
-0.97910994 0.115293294 0.16748542 
-0.97960377 0.11386971 0.16556036 
-0.980148 0.11227753 0.16341236 
-0.98075676 0.110290706 0.1610966 
-0.98134685 0.10806832 0.15899575 
-0.98180234 0.10646069 0.15725897 
-0.98224413 0.10581284 0.15491986 
-0.9831939 0.1042612 0.14986476 
-0.9852872 0.0977599 0.14018632 
-0.9884376 0.083099924 0.12682861 
-0.991325 0.06276955 0.11547628 
-0.9923703 0.04706362 0.11395712 
-0.9862872 0.06256999 0.15271787 
-0.9845641 0.08318985 0.15399043 
-0.9798075 0.10929742 0.16742566 
-0.9749533 0.12698384 0.18259571 
-0.9723157 0.13312931 0.19203852 
-0.97188985 0.13230346 0.19474606 
-0.9724642 0.13009417 0.19336183 
-0.9730456 0.12928425 0.19096595 
-0.97339344 0.12928143 0.18918684 
-0.9737443 0.12875845 0.1877323 
-0.9742187 0.12768415 0.18599662 
-0.97474766 0.12649786 0.1840256 
-0.97528017 0.12529469 0.18201639 
-0.97581625 0.12402737 0.17999975 
-0.97635996 0.12269341 0.177954 
-0.97691095 0.1213026 0.17587113 
-0.9774707 0.1198521 0.17374304 
-0.9780421 0.11833269 0.1715548 
-0.9786289 0.116732195 0.16929027 
-0.97923356 0.115040444 0.16693549 
-0.9798582 0.1132559 0.16447163 
-0.9805102 0.11136214 0.16185895 
-0.9812023 0.10927831 0.15906072 
-0.981935 0.106906146 0.15612386 
-0.9826594 0.10437104 0.15325561 
-0.98328674 0.10224933 0.15063958 
-0.9838804 0.100948974 0.14761008 
-0.9848901 0.09891561 0.1421523 
-0.9868798 0.092314795 0.13246198 
-0.9897505 0.07821208 0.119485766 
-0.9923423 0.058942087 0.108548224 
-0.9932776 0.044136863 0.107011765 
-0.9850248 0.06511737 0.15964353 
-0.98315936 0.086747296 0.16084976 
-0.97801495 0.114022575 0.17460158 
-0.97280973 0.13241507 0.19001997 
-0.9700623 0.13859306 0.19942708 
-0.96974725 0.13741311 0.20176242 
-0.9705281 0.13457163 0.19991423 
-0.971415 0.13285334 0.19673079 
-0.97206783 0.13225229 0.19389078 
-0.9726286 0.13144413 0.19161466 
-0.97328615 0.1299693 0.18926719 
-0.9740172 0.12827206 0.18664603 
-0.97474766 0.12659849 0.18395625 
-0.9754656 0.124901436 0.18129158 
-0.9761807 0.123145044 0.17862406 
-0.9768968 0.12133407 0.1759281 
-0.9776165 0.11946539 0.17318814 
-0.9783439 0.11752584 0.17038481 
-0.9790836 0.11550275 0.16749448 
-0.9798415 0.11338068 0.16448583 
-0.9806236 0.11112499 0.16133413 
-0.9814256 0.108721316 0.15806195 
-0.9822428 0.10623758 0.15463682 
-0.9831138 0.10357466 0.15086251 
-0.98403543 0.1004344 0.14692594 
-0.98484236 0.09740774 0.14351758 
-0.98553514 0.09548211 0.14001314 
-0.9865737 0.093097836 0.13418342 
-0.9884375 0.08654566 0.12450397 
-0.9910234 0.073193364 0.11187277 
-0.9933205 0.05515649 0.10135234 
-0.9941462 0.041420076 0.09978855 
-0.98348564 0.0670952 0.16808982 
-0.98151577 0.08981193 0.16899922 
-0.97601044 0.11827162 0.18279874 
-0.97054255 0.13727766 0.197995 
-0.9677726 0.14360465 0.206867 
-0.96763027 0.14232711 0.20841014 
-0.9685443 0.1395758 0.20601146 
-0.96957546 0.13727097 0.2026824 
-0.97058094 0.13543075 0.19907595 
-0.9715006 0.13391 0.1955883 
-0.9723812 0.13215825 0.19237779 
-0.97329813 0.13005674 0.18914555 
-0.97422844 0.1278784 0.18581223 
-0.97513777 0.12572105 0.1824845 
-0.97602797 0.12354051 0.17918515 
-0.9769088 0.121311374 0.17587745 
-0.97778666 0.11902456 0.17252924 
-0.9786675 0.116666935 0.16911191 
-0.9795589 0.11421951 0.16558518 
-0.98047096 0.111636795 0.16190706 
-0.98140174 0.10887777 0.1581028 
-0.9823291 0.10607086 0.15420315 
-0.9832904 0.103303574 0.14989506 
-0.9843887 0.099917226 0.14489871 
-0.985504 0.09554429 0.14019017 
-0.9863476 0.091949575 0.13661551 
-0.98707426 0.09011396 0.13252868 
-0.988165 0.08762255 0.12590557 
-0.98994917 0.08123779 0.11576364 
-0.99231017 0.06856344 0.10305107 
-0.9943429 0.051811084 0.092724524 
-0.9950839 0.039256275 0.09092315 
-0.98108196 0.0714212 0.17993666 
-0.97901314 0.09485949 0.18037441 
-0.97312325 0.123983614 0.19406012 
-0.9675214 0.1425725 0.20874694 
-0.9650827 0.14793876 0.21617015 
-0.9655002 0.14574653 0.21579495 
-0.9668603 0.14317842 0.2113792 
-0.967893 0.14189094 0.20748556 
-0.968942 0.13952787 0.20416515 
-0.9702492 0.13652998 0.19994013 
-0.97150564 0.13403137 0.19548027 
-0.9726424 0.13164473 0.19140643 
-0.9737549 0.12906095 0.18746914 
-0.97485316 0.12642556 0.1835155 
-0.9759211 0.12380629 0.179583 
-0.9769652 0.12116412 0.17566574 
-0.9779972 0.118467845 0.17171761 
-0.9790275 0.115697086 0.1676882 
-0.9800682 0.11281103 0.1635237 
-0.9811248 0.10975206 0.1592123 
-0.98218066 0.10658937 0.15478958 
-0.98325014 0.103492014 0.15002888 
-0.9844483 0.0999664 0.14445888 
-0.9857542 0.09511124 0.13871737 
-0.986827 0.09024589 0.13426907 
-0.98762 0.08767158 0.13007852 
-0.98855907 0.085983455 0.1239268 
-0.9898832 0.082558066 0.11539263 
-0.9917378 0.075248696 0.10389307 
-0.9939167 0.062264185 0.090845756 
-0.9956709 0.046329558 0.08057991 
-0.9963242 0.03462616 0.078353144 
-0.97810876 0.08132242 0.19154626 
-0.9756735 0.10541129 0.19222343 
-0.96899337 0.13517526 0.2068325 
-0.9629065 0.15286052 0.22236207 
-0.9609237 0.1553665 0.22910057 
-0.9623983 0.1498463 0.22657391 
-0.9649813 0.1447508 0.21876553 
-0.96666193 0.1440608 0.21168672 
-0.9675944 0.1433544 0.20787151 
-0.9689245 0.13980697 0.204057 
-0.97056466 0.13589035 0.19884212 
-0.9720393 0.13283661 0.19363393 
-0.9733554 0.12994021 0.18893054 
-0.97462726 0.12690434 0.18438284 
-0.9758669 0.123848304 0.17984822 
-0.9770708 0.12079757 0.17533015 
-0.9782517 0.117706075 0.17078906 
-0.97942615 0.11452724 0.16615666 
-0.98060596 0.11120597 0.16138524 
-0.9817879 0.10774846 0.15646945 
-0.98297846 0.10427063 0.15126513 
-0.9842618 0.100497864 0.14535809 
-0.9856674 0.09556244 0.13902347 
-0.98691434 0.09019115 0.13366285 
-0.98786634 0.086987324 0.12865981 
-0.9889855 0.084949106 0.12120787 
-0.9904723 0.08067584 0.11160712 
-0.9921458 0.07392209 0.10090764 
-0.9940039 0.06382079 0.088788204 
-0.99578935 0.050087042 0.07677823 
-0.9970971 0.034981206 0.06763111 
-0.99755234 0.024043724 0.065660775 
-0.9767473 0.08791958 0.19553769 
-0.97357905 0.11468482 0.19746192 
-0.96543556 0.14799012 0.21455333 
-0.95787287 0.1679004 0.23299998 
-0.9554164 0.16915327 0.24200591 
-0.95766324 0.15957084 0.23962109 
-0.9617221 0.14908767 0.22992079 
-0.964996 0.14480186 0.21866687 
-0.9665942 0.14487116 0.21144281 
-0.96783495 0.14273831 0.20717487 
-0.9695724 0.13819462 0.20206861 
-0.97138315 0.13403945 0.19608253 
-0.97297144 0.1305991 0.19044827 
-0.97442716 0.12721722 0.18522294 
-0.9758286 0.12377232 0.1801083 
-0.9771864 0.120324224 0.17501107 
-0.9785117 0.11684497 0.16988905 
-0.97982246 0.113269776 0.16467568 
-0.98112893 0.10956156 0.1593186 
-0.9824393 0.10575791 0.15371527 
-0.98380554 0.10173245 0.14757122 
-0.98527694 0.096864924 0.14087786 
-0.98667896 0.09132927 0.13462447 
-0.98781985 0.08737682 0.1287528 
-0.989107 0.08487812 0.120262355 
-0.9909334 0.07916261 0.10855515 
-0.992858 0.06948813 0.09697728 
-0.9945348 0.058701925 0.08634078 
-0.9959369 0.04743026 0.07655274 
-0.99705017 0.036081415 0.067743085 
-0.9978074 0.024695694 0.06140534 
-0.99801195 0.016540475 0.060816497 
-0.97725564 0.07686471 0.19764438 
-0.9738672 0.10910009 0.19919817 
-0.9645715 0.15006101 0.21698776 
-0.95507455 0.17736271 0.23743473 
-0.9508498 0.18326162 0.24959983 
-0.9525832 0.17366554 0.24985132 
-0.95736927 0.1592151 0.24102856 
-0.9621634 0.14912528 0.22804272 
-0.9651722 0.14614107 0.21699214 
-0.9669089 0.14457461 0.21020342 
-0.96869326 0.14057861 0.20462392 
-0.97068936 0.13576351 0.19831918 
-0.97254604 0.13157159 0.19194618 
-0.97421235 0.1277373 0.18599337 
-0.975777 0.123922534 0.18028477 
-0.97728175 0.12009363 0.17463653 
-0.9787446 0.11623107 0.16896553 
-0.9801837 0.11227653 0.16319926 
-0.9816146 0.10819993 0.1572441 
-0.98306763 0.10394446 0.15090905 
-0.98459256 0.09917297 0.14402196 
-0.98613405 0.09366324 0.13699238 
-0.98751086 0.0886813 0.130223 
-0.9888906 0.08524507 0.12177288 
-0.99080443 0.07961912 0.10939617 
-0.9930617 0.06809467 0.095873274 
-0.9948859 0.054494854 0.08504389 
-0.99607354 0.043742254 0.07696802 
-0.99681747 0.037183177 0.07051512 
-0.99738294 0.03333052 0.06415943 
-0.99780446 0.029805688 0.059144653 
-0.99789953 0.027453853 0.05867606 
-0.9741145 0.057855982 0.21852618 
-0.9724875 0.093387194 0.21341716 
-0.9644422 0.13975297 0.22432199 
-0.9546956 0.17492951 0.24074043 
-0.94888115 0.1892919 0.2525731 
-0.94905114 0.18523934 0.2549281 
-0.9534221 0.17116284 0.2483741 
-0.959047 0.1570096 0.23574756 
-0.96337306 0.1496445 0.22252859 
-0.9659748 0.14658432 0.21308596 
-0.9680446 0.14273354 0.20619619 
-0.9701924 0.13771017 0.19940567 
-0.972252 0.13292198 0.192504 
-0.9741122 0.12857464 0.18594109 
-0.9758317 0.12436376 0.17968386 
-0.9774682 0.120164916 0.1735407 
-0.97905105 0.11593322 0.16738781 
-0.98060256 0.11161078 0.16112648 
-0.98214686 0.10714165 0.15462306 
-0.98372215 0.102379784 0.1476793 
-0.98534936 0.09702522 0.14025964 
-0.98693717 0.09131896 0.13272536 
-0.9884299 0.0864677 0.12461825 
-0.9901905 0.08149922 0.11349319 
-0.99252516 0.07149397 0.09890723 
-0.9947532 0.05596934 0.085636176 