# OOMMF OVF 2.0
# Segment count: 1
# Begin: Segment
# Begin: Header
# Title: J
# meshtype: rectangular
# meshunit: m
# xmin: 0
# ymin: 0
# zmin: 0
# xmax: 32
# ymax: 32
# zmax: 1
# valuedim: 3
# valuelabels: J_x J_y J_z
# valueunits: A/m2 A/m2 A/m2
# Desc: Total simulation time:  0  s
# xbase: 0.5
# ybase: 0.5
# zbase: 0.5
# xnodes: 32
# ynodes: 32
# znodes: 1
# xstepsize: 1
# ystepsize: 1
# zstepsize: 1
# End: Header
# Begin: Data Text
0 0 39397396514.58033
0 0 39344382663.90572
0 0 39592604902.220764
0 0 194452183314.6691
0 0 195194396798.42764
0 0 194794289858.0414
0 0 194616356715.4317
0 0 193571630751.70184
0 0 192098737115.6372
0 0 192023445078.17905
0 0 191811225701.96622
0 0 190472470258.95697
0 0 190362627250.7744
0 0 192436353167.5324
0 0 193152361838.91028
0 0 191971397194.31006
0 0 191579661721.55276
0 0 193507016844.26248
0 0 193825438987.81168
0 0 192494033214.97342
0 0 193605090881.3754
0 0 195274670986.1328
0 0 195184796558.09613
0 0 195204052437.473
0 0 194776449687.78125
0 0 191752880808.7399
0 0 187590714181.5359
0 0 180023083690.84653
0 0 156746109994.86765
0 0 110702997179.31346
0 0 57404858898.06941
0 0 43148095190.76843
0 0 39063243865.77489
0 0 39075794649.39883
0 0 39253287658.321014
0 0 194776360349.8974
0 0 195083090201.35895
0 0 195227719107.56644
0 0 195257861311.72437
0 0 195165508243.85724
0 0 194793749438.26254
0 0 194520853930.78796
0 0 194253720496.46945
0 0 193103180952.5176
0 0 192660288341.68777
0 0 193665995521.7749
0 0 193301442631.11316
0 0 192271154876.72467
0 0 193818483938.67435
0 0 195100082796.77896
0 0 194664979845.2037
0 0 193576550426.64963
0 0 193783936384.54282
0 0 194999946888.10068
0 0 195310757164.3724
0 0 195253098836.46783
0 0 194496674241.50098
0 0 192075685200.8927
0 0 188675589039.48477
0 0 183730656018.37222
0 0 173187221293.03015
0 0 159846788502.1995
0 0 141203641600.64044
0 0 96204317255.69847
0 0 40186364655.05504
0 0 39986524556.28828
0 0 39697440824.732994
0 0 189643445631.48123
0 0 195099206739.60834
0 0 195299553966.16327
0 0 195301876446.502
0 0 195286535928.6137
0 0 195308868659.61127
0 0 195054024504.31107
0 0 194971147525.07236
0 0 194744567481.203
0 0 194386507832.50842
0 0 194211927339.91577
0 0 193199114126.93524
0 0 193154517937.88928
0 0 195250514404.6754
0 0 194570985609.75876
0 0 195288984940.0533
0 0 194616344514.0692
0 0 193843760245.7144
0 0 194343466836.38095
0 0 195141931320.12817
0 0 195304524977.75665
0 0 194298003752.7408
0 0 192974129597.93585
0 0 192003323526.09778
0 0 191204328312.9109
0 0 190668474029.57043
0 0 192260365954.76816
0 0 195049642398.205
0 0 195273602070.7888
0 0 92443961351.68892
0 0 113347674349.1128
0 0 160892810238.87234
0 0 192904464328.93115
0 0 195220083371.5007
0 0 194890799792.20718
0 0 195233887994.3797
0 0 195241378551.41965
0 0 195251591716.82657
0 0 195192904985.55338
0 0 194933630243.74695
0 0 194901836064.8773
0 0 194855686466.2201
0 0 194867522321.77863
0 0 194323496322.67062
0 0 194646650190.82492
0 0 194944737942.01465
0 0 192401955180.95877
0 0 194732235031.78436
0 0 194618062153.58472
0 0 193165029087.06082
0 0 194033660218.97034
0 0 195160797258.54846
0 0 195087738099.84335
0 0 193487711362.9725
0 0 193683584850.66675
0 0 194457018092.7889
0 0 195153601406.29822
0 0 195290890350.6029
0 0 194750085402.80566
0 0 192937968123.01205
0 0 192327429121.348
0 0 165603891945.22238
0 0 170728812405.79996
0 0 185681182723.16803
0 0 194459178829.49704
0 0 195212776216.07776
0 0 194634358598.646
0 0 195105394508.22232
0 0 195306505488.76733
0 0 195284174055.51822
0 0 195310202736.73135
0 0 195170953950.38092
0 0 195047623093.26804
0 0 195201237977.10025
0 0 195302079176.27325
0 0 195277552415.35773
0 0 195143263009.81256
0 0 193588265006.13312
0 0 192245476809.75613
0 0 194978273966.36554
0 0 193839875470.55798
0 0 192118197646.862
0 0 193913918545.72812
0 0 195122931572.11066
0 0 195121853946.603
0 0 194209445323.46805
0 0 194789793016.086
0 0 195151481751.84372
0 0 195297338975.74756
0 0 194872502117.36417
0 0 194111735484.50714
0 0 193441089197.6855
0 0 193707302638.60785
0 0 181948184038.27744
0 0 183502997937.00513
0 0 187901368224.43546
0 0 191689300255.92865
0 0 194344916101.8692
0 0 195294798723.09372
0 0 195084848526.79126
0 0 195312494718.4051
0 0 195304158859.4701
0 0 195246896812.9793
0 0 195068460778.80707
0 0 195252847297.2226
0 0 195310745386.59402
0 0 195152298136.6663
0 0 194559985357.27338
0 0 193875650445.21283
0 0 192564517713.0865
0 0 192568148123.0335
0 0 195019350469.3011
0 0 194411230128.00626
0 0 192360721706.38095
0 0 192764931514.9621
0 0 194051767889.97525
0 0 194988420938.5374
0 0 195282524200.95297
0 0 195312470049.91125
0 0 195249780481.98248
0 0 195301386030.17392
0 0 195183056899.26947
0 0 194534854822.07043
0 0 194013664554.75204
0 0 193993892832.6164
0 0 186454791380.101
0 0 186590764448.403
0 0 188325520271.53098
0 0 189832116321.52673
0 0 192314657365.05945
0 0 194721425666.30347
0 0 195275999044.00647
0 0 195192129512.6027
0 0 195300640735.142
0 0 195127614649.63428
0 0 194274561794.94287
0 0 194763991551.5329
0 0 195291214758.24722
0 0 195256913517.8028
0 0 194970757026.42517
0 0 194456347492.78268
0 0 193234938699.70047
0 0 192931463949.74802
0 0 194344958870.69812
0 0 195297686399.0404
0 0 194474361978.59528
0 0 193586162284.1262
0 0 194230632618.76483
0 0 194397354545.7991
0 0 194882799142.13293
0 0 195279816387.97522
0 0 194929933205.5118
0 0 194857080080.25537
0 0 195068219891.23572
0 0 195235274787.58307
0 0 195276889683.73322
0 0 195295645431.13416
0 0 189641115466.15103
0 0 189704993165.9065
0 0 192004776536.57422
0 0 193072309524.97025
0 0 193775417247.85916
0 0 194082893007.1592
0 0 194944838264.34894
0 0 195226241653.05774
0 0 194995336718.6939
0 0 195095033307.65387
0 0 194726836733.1622
0 0 194901010211.57483
0 0 195303239940.7261
0 0 195312385459.76743
0 0 195260806496.34738
0 0 194880067912.02826
0 0 194244106239.0294
0 0 194183486329.92096
0 0 193871255414.39398
0 0 194069883383.83463
0 0 195239140990.8793
0 0 195276293973.804
0 0 195310289964.68213
0 0 195097468464.8619
0 0 195208385092.78598
0 0 195069695822.15396
0 0 194778770301.6064
0 0 193877571086.61234
0 0 192376274136.71616
0 0 190682484211.59906
0 0 189597709715.89938
0 0 189071775321.18344
0 0 193977737889.74115
0 0 194405417000.25574
0 0 195161340733.3695
0 0 195306600720.8563
0 0 195207535390.68005
0 0 194530108646.55988
0 0 193579398749.72684
0 0 194929709581.8195
0 0 195280794485.9177
0 0 195300355908.98444
0 0 195282952806.27502
0 0 195276372592.32993
0 0 195311565457.2492
0 0 195238731745.7438
0 0 195023649847.61282
0 0 194731790263.26007
0 0 194963053359.22174
0 0 195273704304.78992
0 0 195038661521.51346
0 0 194408169541.00235
0 0 194808415336.97464
0 0 195142903199.57523
0 0 195070575642.78546
0 0 195293091266.91507
0 0 195310109141.7185
0 0 194986667174.70325
0 0 194630943036.98132
0 0 193181074888.84656
0 0 190857249011.9745
0 0 187751658369.03012
0 0 184142020627.93353
0 0 181533671869.53513
0 0 194677911635.3025
0 0 195269566746.8573
0 0 194511480692.33234
0 0 194507397352.14365
0 0 195306598620.7987
0 0 194627544866.00146
0 0 193410948778.67545
0 0 194192137581.02625
0 0 195057495255.3491
0 0 194922405576.3771
0 0 194849812116.67422
0 0 195009827014.6966
0 0 195251500170.40137
0 0 195051948872.15088
0 0 194548726222.65863
0 0 194656781573.06952
0 0 195252568333.0931
0 0 195102721312.9086
0 0 195100887097.59882
0 0 195292947223.31924
0 0 195268874911.88974
0 0 195135774240.11646
0 0 194940778433.34793
0 0 195033547687.64786
0 0 195152649260.06882
0 0 194629717500.72726
0 0 194254039791.36304
0 0 193591199163.70004
0 0 192196026440.74115
0 0 188727232258.8474
0 0 181546874419.59512
0 0 177275908719.12595
0 0 186581520856.0945
0 0 195312142868.04752
0 0 193409162718.70322
0 0 194592824397.8784
0 0 195066400778.8252
0 0 192447270115.7035
0 0 190568266842.3721
0 0 192506464143.73807
0 0 194136692560.39163
0 0 194073703501.41705
0 0 193729096482.13937
0 0 193856092826.4068
0 0 194506979254.863
0 0 195309804150.34305
0 0 194892234966.89975
0 0 194558988921.17706
0 0 195125536054.69916
0 0 195258419570.5479
0 0 194863249450.40393
0 0 194327499940.07248
0 0 194762232012.0306
0 0 195242404716.37793
0 0 195293141006.1203
0 0 195307126400.25146
0 0 195263763142.6715
0 0 194866348123.67203
0 0 194525298000.13013
0 0 194069077491.74097
0 0 192299287439.07526
0 0 188107049813.93573
0 0 182046260561.98013
0 0 181715399383.9182
0 0 48159969599.59723
0 0 194404918668.4611
0 0 191215494829.95837
0 0 194689081424.3553
0 0 195072374741.6849
0 0 193086238611.95312
0 0 189635628382.69565
0 0 189707826254.20425
0 0 191466367767.7942
0 0 191486884340.47723
0 0 191322576799.3651
0 0 191749792250.17285
0 0 192476860428.66565
0 0 194557971840.67255
0 0 195285749334.8327
0 0 194681210021.6533
0 0 194719858663.7966
0 0 195105645838.50955
0 0 195277134995.30823
0 0 193521872523.54865
0 0 191510948879.63278
0 0 191953743397.92834
0 0 192113759933.7774
0 0 193155689271.77405
0 0 194976436437.45685
0 0 195253717350.2165
0 0 194671665918.8227
0 0 193622771095.61514
0 0 191592249840.4349
0 0 188112880656.31674
0 0 186151665991.01117
0 0 189416454273.896
0 0 39080287127.16492
0 0 43956198134.27149
0 0 174125290489.78516
0 0 193425473348.6081
0 0 195309289051.73694
0 0 194838715169.5333
0 0 191459027188.83777
0 0 188597605889.3462
0 0 188233169922.4751
0 0 185789061943.0205
0 0 185294716869.12872
0 0 186960031187.10544
0 0 186465613140.2521
0 0 190666016413.06036
0 0 194908858357.44598
0 0 195144163152.4388
0 0 194807363161.63614
0 0 194914664849.92932
0 0 195308480721.88397
0 0 192980208270.93832
0 0 188293836522.23062
0 0 187081269476.74377
0 0 186165590638.39017
0 0 187050634073.2158
0 0 192538738642.58774
0 0 194903554682.33893
0 0 195311205311.08713
0 0 195042504935.52322
0 0 194382213623.2526
0 0 191529116715.52023
0 0 188035333956.4825
0 0 191147801025.07953
0 0 39087117131.14504
0 0 39282568798.818085
0 0 79224307146.6406
0 0 193359132613.10138
0 0 195286347660.3169
0 0 194963700731.22498
0 0 190397192850.92194
0 0 184672924569.3851
0 0 182368507146.92703
0 0 175947638150.50937
0 0 171573651970.8813
0 0 174176917273.38675
0 0 174647206387.91333
0 0 184631702311.99182
0 0 194039272010.16165
0 0 195269876449.45486
0 0 195174743619.31232
0 0 195312416314.723
0 0 194535741959.7431
0 0 189637575975.0286
0 0 182411328150.3984
0 0 178610474015.3775
0 0 172973368684.19547
0 0 173294770949.406
0 0 186270362288.1778
0 0 193257997000.58173
0 0 195138267856.26108
0 0 195311167966.5236
0 0 195312478133.621
0 0 193815520057.61755
0 0 184026415055.1948
0 0 184389489891.6736
0 0 39214667817.27575
0 0 39066581403.02083
0 0 39668611974.91541
0 0 191744087792.66992
0 0 194611890529.17932
0 0 194470119448.05865
0 0 189112719865.40744
0 0 180791341935.0673
0 0 173537963629.46967
0 0 158587247967.11276
0 0 146517184027.2331
0 0 149299909242.86804
0 0 153076604744.9944
0 0 175199034902.55084
0 0 193139702125.68314
0 0 195301595967.01282
0 0 195301282210.8657
0 0 194078247836.4849
0 0 188502130775.58163
0 0 175226986254.00494
0 0 159277953203.17603
0 0 145953621287.26926
0 0 136097690532.20166
0 0 148645077909.87256
0 0 178867021432.56073
0 0 193397721734.59604
0 0 195312475258.30374
0 0 195310601978.6616
0 0 194652723006.94156
0 0 191782487061.80927
0 0 40643202961.785446
0 0 39094602603.0841
0 0 40057946044.0076
0 0 39895372976.954636
0 0 40049327631.27553
0 0 144792044861.11328
0 0 191089750398.71463
0 0 193582332155.4951
0 0 188435803922.207
0 0 175829030775.78644
0 0 158557269541.42947
0 0 136838757434.1868
0 0 124312425822.89604
0 0 128226112998.23692
0 0 130991235532.98405
0 0 160338570115.38412
0 0 190104995178.63733
0 0 195204505621.3679
0 0 194932161500.4905
0 0 191326091487.61404
0 0 181748144993.5635
0 0 165763246550.69067
0 0 144410315401.94623
0 0 120385615651.60675
0 0 108513201705.05272
0 0 128680401546.15854
0 0 171234105521.27713
0 0 193404710760.61804
0 0 195044575290.01572
0 0 194789265803.62582
0 0 195298146225.80005
0 0 195301055768.6265
0 0 39106119526.96658
0 0 39072000470.34853
0 0 43838123092.46197
0 0 46906619644.31176
0 0 59066294814.635
0 0 147424135316.37796
0 0 191085276677.79303
0 0 193715366393.51114
0 0 188113788766.85205
0 0 169708080075.46167
0 0 145452356370.9782
0 0 127951884152.43924
0 0 120916862066.77527
0 0 123148650684.2222
0 0 123793219115.11383
0 0 153097639159.50848
0 0 187091097196.2904
0 0 194893730527.61926
0 0 194988720413.48666
0 0 192505420175.69278
0 0 185955927830.10608
0 0 173799078908.9513
0 0 152309773494.28302
0 0 125129348577.8342
0 0 114713169505.49861
0 0 136538369649.84927
0 0 174687358466.0894
0 0 193838826512.2448
0 0 195034586550.06534
0 0 195306968625.74954
0 0 188798246894.66135
0 0 87042428476.53883
0 0 39072228899.642334
0 0 39087533908.39295
0 0 65323790669.8388
0 0 87981127566.71332
0 0 134043946764.0518
0 0 177109205454.85233
0 0 191896806948.65076
0 0 192524057841.05942
0 0 185511873140.0525
0 0 164591725265.56488
0 0 140864574728.93573
0 0 130868704482.04758
0 0 130082205025.46951
0 0 135935060631.66342
0 0 139177297101.21173
0 0 161478130045.71622
0 0 188447620929.2319
0 0 195217889423.97208
0 0 195307042024.02875
0 0 194103914292.61856
0 0 190089938354.1757
0 0 182010362141.54227
0 0 167091296849.08157
0 0 147993818782.85544
0 0 142816451299.54596
0 0 160615414477.094
0 0 181532325268.1827
0 0 192504586365.27362
0 0 195199392345.29477
0 0 195130885206.13138
0 0 190489571875.07614
0 0 39722075965.576546
0 0 39083858459.63682
0 0 39066389695.21389
0 0 121905630701.01414
0 0 143625832588.46774
0 0 165276385901.3147
0 0 184273444267.4515
0 0 190822455628.1272
0 0 190467492154.10266
0 0 184758730584.3749
0 0 168404705081.18723
0 0 150993065604.21268
0 0 146590831817.01825
0 0 147993439596.8603
0 0 153976964967.7806
0 0 155884926632.86948
0 0 169839956823.6769
0 0 190260813226.6872
0 0 195312476132.73203
0 0 195296181496.9482
0 0 194499339447.35056
0 0 191818956137.24887
0 0 187176742781.87598
0 0 178886157121.7352
0 0 167776496644.92688
0 0 166298723522.75497
0 0 179450626470.80603
0 0 188758072695.0937
0 0 193041813208.42978
0 0 195249965008.27682
0 0 195175630321.73114
0 0 194172824361.28543
0 0 115346036791.23082
0 0 39147182980.09115
0 0 39106345244.68025
0 0 149190344720.28772
0 0 164212835279.89352
0 0 181871868401.2897
0 0 191829598213.5266
0 0 193176219003.6189
0 0 192790387709.9629
0 0 190034066625.27264
0 0 179433208743.99323
0 0 167840424470.39676
0 0 164954348802.16586
0 0 164862188825.99332
0 0 168165333669.1346
0 0 166912873775.33795
0 0 175624406841.20526
0 0 191658503650.25516
0 0 195303990355.8266
0 0 195295691647.83087
0 0 194778056354.53506
0 0 193617199558.67865
0 0 192474323982.79532
0 0 189600458957.76974
0 0 182713398186.14966
0 0 178781780173.86664
0 0 186620292989.15527
0 0 192335831657.20276
0 0 194378920092.27258
0 0 195303276641.16855
0 0 195276221045.72357
0 0 195110510497.89
0 0 195303516734.0009
0 0 40250512702.13469
0 0 39128817506.04364
0 0 187468809886.21658
0 0 191987497872.33185
0 0 195130700554.98093
0 0 195298996088.14536
0 0 195217722036.59552
0 0 194831135355.16953
0 0 193363638172.42783
0 0 188042306583.9268
0 0 183175357469.1708
0 0 181588560841.42682
0 0 180713858744.5571
0 0 182471129533.00995
0 0 179782784267.43848
0 0 184174177352.49744
0 0 193067057742.34058
0 0 195272187230.92297
0 0 195297340814.54068
0 0 195129233672.38266
0 0 195073486858.1249
0 0 195254487023.16983
0 0 195074454836.5764
0 0 191989336544.0573
0 0 187360399736.94455
0 0 190859391132.52344
0 0 194079377859.53445
0 0 195046431895.8459
0 0 195238023276.26804
0 0 195298673112.2128
0 0 195309454055.25528
0 0 195058347731.8608
0 0 195308839221.7753
0 0 70774281163.59956
0 0 191351448129.7233
0 0 190584092391.63113
0 0 190393607453.37994
0 0 192506517723.75696
0 0 194714346416.5848
0 0 195299535367.08157
0 0 195124526491.3841
0 0 194363759030.7651
0 0 193970224952.40457
0 0 192799594256.59793
0 0 190812476531.64084
0 0 191540947967.0035
0 0 191537061897.88754
0 0 192686180156.9098
0 0 194499806866.26654
0 0 195155778754.2643
0 0 195283487665.52252
0 0 195292481812.35623
0 0 195081795192.84528
0 0 194419327256.76932
0 0 194678280225.50537
0 0 195014716332.9481
0 0 192590647455.0944
0 0 193429556603.76443
0 0 194416574857.0455
0 0 194552204142.47165
0 0 195284266410.37546
0 0 195269198396.17215
0 0 195157871592.38635
0 0 194660568003.9884
0 0 195201589678.57196
0 0 194515824133.21017
0 0 172321222719.6025
0 0 176114399944.35303
0 0 182760176569.97473
0 0 189558236288.3401
0 0 193823246464.08484
0 0 195147778520.25766
0 0 195312494567.61343
0 0 195312465121.57034
0 0 195242760751.26932
0 0 195277759570.33035
0 0 194556715157.0207
0 0 195048600616.24146
0 0 195295076710.91528
0 0 195273243012.50797
0 0 195226617886.66278
0 0 195274589313.11774
0 0 195299071077.2182
0 0 194977319517.27274
0 0 194272145447.5464
0 0 193374693636.07394
0 0 193802226748.2276
0 0 195247000385.7356
0 0 195035795359.45316
0 0 195139176715.78622
0 0 195105477381.34406
0 0 193929204379.08902
0 0 193536424587.3908
0 0 194606181221.52432
0 0 195263712765.4651
0 0 195172260056.39584
0 0 195312338927.62714
0 0 195173446029.54492
0 0 168740249496.30087
0 0 174044348442.69983
0 0 181323177859.90787
0 0 188211537060.14072
0 0 192786096199.374
0 0 194579126178.22818
0 0 195179939633.50504
0 0 195221151938.61044
0 0 194996696496.18063
0 0 195283751907.46606
0 0 195188554321.71945
0 0 195252019188.42792
0 0 194348612689.2799
0 0 194275786342.62488
0 0 194980881099.41043
0 0 195267344806.39804
0 0 195226586321.60843
0 0 194926292191.05927
0 0 194595921793.89517
0 0 194601624041.67023
0 0 194507647012.65845
0 0 194799308305.1506
0 0 195247048219.84604
0 0 195309551014.46057
0 0 195289373929.80304
0 0 194938122268.14105
0 0 193797201880.38858
0 0 193417461108.07605
0 0 194151490020.39056
0 0 195099129368.54498
0 0 194992579928.83035
0 0 194579355914.84824
0 0 182769250257.87805
0 0 184320621741.5625
0 0 186152033551.7104
0 0 188933782214.5458
0 0 191710429728.7686
0 0 193249804936.06287
0 0 194587988671.83157
0 0 194982296973.31094
0 0 195082162788.45172
0 0 195305051240.9596
0 0 195198605180.58218
0 0 194968028084.39175
0 0 192726633044.56912
0 0 192098601449.84454
0 0 193892827046.5706
0 0 195044548205.9309
0 0 195140985206.37994
0 0 194801364747.73236
0 0 194605923933.89478
0 0 194951843636.96375
0 0 194669772445.92917
0 0 193965482943.75815
0 0 194883500880.92392
0 0 194961338280.28647
0 0 193650671689.936
0 0 193437468183.363
0 0 193135197875.3468
0 0 192691675234.38474
0 0 192406783717.53735
0 0 194067992532.50305
0 0 194948050172.9951
0 0 195022428602.3036
0 0 187601128059.009
0 0 187963160987.03308
0 0 189095571669.64923
0 0 191289205486.41116
0 0 192775608980.9142
0 0 193452673446.31903
0 0 193879357613.87134
0 0 193604524914.94827
0 0 194276089395.40298
0 0 195219962994.2879
0 0 195299559738.15842
0 0 194908069380.13983
0 0 194281116068.72498
0 0 194225792054.479
0 0 194601237845.75665
0 0 194914430823.9197
0 0 194889522936.97208
0 0 194020171114.30728
0 0 192982781690.6542
0 0 193533302975.37582
0 0 193757955528.90912
0 0 193695255228.25354
0 0 194723069741.85974
0 0 195101744995.68716
0 0 192853179480.8042
0 0 191244849769.82492
0 0 191611208781.28928
0 0 191954354057.80234
0 0 191118588975.42297
0 0 192974078627.32016
0 0 195148680976.93832
0 0 195277131559.62744
0 0 191504317469.10056
0 0 191942257021.35284
0 0 193314166762.2949
0 0 194525933389.15604
0 0 194553501168.67758
0 0 193992120552.052
0 0 192712960691.38885
0 0 191153326171.7835
0 0 192553160456.12958
0 0 194498505056.3029
0 0 195259731234.92297
0 0 195151443560.29108
0 0 194905966920.35217
0 0 195267546013.5127
0 0 195170951898.00897
0 0 194638784752.5856
0 0 194328214096.94556
0 0 193399823947.23163
0 0 192587062645.9542
0 0 193508004499.24634
0 0 194179477705.0699
0 0 194570855535.17685
0 0 194902270403.3496
0 0 195296196833.57907
0 0 194916092742.10052
0 0 194097892933.72626
0 0 194201543792.5696
0 0 194370822145.6485
0 0 193594494487.6816
0 0 194184343057.45282
0 0 195207256161.90665
0 0 193882937346.21475
0 0 195241755395.57397
0 0 195026161153.99844
0 0 194647251886.25043
0 0 194402722289.27155
0 0 195143396667.5549
0 0 195111579476.8839
0 0 193827162329.15317
0 0 192877335767.6442
0 0 193685568952.8295
0 0 194652290005.70157
0 0 195300823873.25125
0 0 193657092482.54645
0 0 193320838025.23682
0 0 195061521853.77988
0 0 195142196986.6102
0 0 194372353223.31067
0 0 194336187998.5593
0 0 194512841092.1487
0 0 194881160946.2551
0 0 195221992356.76282
0 0 195188612031.56372
0 0 195194238182.66785
0 0 195312498822.5688
0 0 195142823188.54355
0 0 194896181585.8359
0 0 195001181519.82635
0 0 195246691913.9972
0 0 195311086660.54318
0 0 195303067715.7824
0 0 194906190118.12057
0 0 184382702992.00018
0 0 172249942643.25555
0 0 193600631468.7364
0 0 191699436218.51965
0 0 191678095466.37637
0 0 192320861530.97678
0 0 193979721404.90103
0 0 195159163362.1368
0 0 195273554515.12485
0 0 195090440340.9837
0 0 195039873496.00375
0 0 195180647021.6631
0 0 195171644925.165
0 0 193038156616.83667
0 0 192455598876.80203
0 0 194701087654.4494
0 0 195157154856.4061
0 0 193843777871.62866
0 0 194147860058.96466
0 0 195123401976.9247
0 0 195270814368.03183
0 0 195123092947.6658
0 0 195312418735.75732
0 0 195291833849.99445
0 0 195152127021.7044
0 0 194402013997.60318
0 0 194306990672.04355
0 0 194806283272.36908
0 0 195201228482.19907
0 0 195304606063.89972
0 0 195168207233.0954
0 0 187358607728.10147
0 0 124715582237.38351
0 0 93022368782.95924
0 0 194592551777.8484
0 0 193064024149.23093
0 0 194588102335.34222
0 0 194887575606.141
0 0 194726378481.50845
0 0 194913039151.44287
0 0 195198255892.12503
0 0 195312201856.0074
0 0 195188849282.7633
0 0 195158836573.13965
0 0 195279530309.8129
0 0 193312512413.8255
0 0 191639921993.0787
0 0 194013471342.73892
0 0 195272720058.8712
0 0 193723619964.86032
0 0 194038008626.18802
0 0 195283076157.74765
0 0 194951400606.22455
0 0 194780223420.82767
0 0 195293354160.41537
0 0 195285563978.11798
0 0 195214437015.47162
0 0 194269960586.25284
0 0 193561237171.57184
0 0 193897474469.3253
0 0 194380088873.86072
0 0 194360576901.43478
0 0 195210765081.78275
0 0 169480649582.45392
0 0 53620053088.65419
0 0 45059925233.06348
0 0 193406737131.3336
0 0 191987144790.91183
0 0 185786442343.75278
0 0 190150218481.02737
0 0 194894552416.0122
0 0 195238022725.3722
0 0 195142751999.29773
0 0 195264423183.97784
0 0 195232341821.3816
0 0 194424814634.71686
0 0 194593277501.2595
0 0 195126248507.20035
0 0 193528703250.40945
0 0 194274473201.4458
0 0 195270933249.8168
0 0 195090560236.19162
0 0 195042615841.80908
0 0 195308405188.8691
0 0 194784297747.59296
0 0 194017188479.7802
0 0 194320329781.74213
0 0 194328924127.1566
0 0 192836546989.81882
0 0 190252318318.3606
0 0 188992851997.43823
0 0 190263102232.85037
0 0 190834669183.38434
0 0 187415815629.11023
0 0 185244761737.0568
0 0 49105199078.587456
0 0 39843829648.25405
0 0 39328822024.7969
0 0 40105379156.98354
0 0 47856431723.32279
0 0 117644199182.76396
0 0 165150697326.60797
0 0 191105697067.25974
0 0 195302051083.78555
0 0 195142201900.29907
0 0 195040641619.08276
0 0 195284803759.35483
0 0 193978095041.35907
0 0 192367070361.34082
0 0 194803442857.6591
0 0 195190762397.99506
0 0 194974518647.87894
0 0 195000113531.18088
0 0 195143493708.31583
0 0 195311065845.26776
0 0 195276715879.35666
0 0 195127223843.21756
0 0 193069144187.4473
0 0 190745833395.8772
0 0 188011968372.6971
0 0 182745007190.60474
0 0 178958196271.0814
0 0 179224353039.44553
0 0 182852121202.97476
0 0 182809760412.9689
0 0 165487818811.2211
0 0 112198921434.9451
0 0 39108391223.09804
0 0 39075333082.38474
0 0 39079032212.215706
# End: Data Text
# End: Segment
