# OOMMF OVF 2.0
# Segment count: 1
# Begin: Segment
# Begin: Header
# Title: J
# meshtype: rectangular
# meshunit: m
# xmin: 0
# ymin: 0
# zmin: 0
# xmax: 32
# ymax: 32
# zmax: 1
# valuedim: 3
# valuelabels: J_x J_y J_z
# valueunits: A/m2 A/m2 A/m2
# Desc: Total simulation time:  0  s
# xbase: 0.5
# ybase: 0.5
# zbase: 0.5
# xnodes: 32
# ynodes: 32
# znodes: 1
# xstepsize: 1
# ystepsize: 1
# zstepsize: 1
# End: Header
# Begin: Data Text
0 0 146582254791.0562
0 0 160117028529.92438
0 0 180554942896.08542
0 0 192982335583.77194
0 0 195214877975.77396
0 0 193953913835.24854
0 0 194096213983.50717
0 0 194584117216.874
0 0 194252953404.13278
0 0 193037867186.29437
0 0 191750808836.52673
0 0 191425062043.8016
0 0 191627404753.952
0 0 192324609424.92804
0 0 194030700468.87396
0 0 195102901754.45544
0 0 195229195521.7329
0 0 195046507263.26822
0 0 194768846030.5225
0 0 194453057384.98764
0 0 193875613134.74084
0 0 193446580586.37814
0 0 193956045096.552
0 0 194867000735.5915
0 0 195290755189.12115
0 0 195276812668.70898
0 0 195243277592.47443
0 0 195271227000.40448
0 0 195263573675.8282
0 0 195137542176.12296
0 0 194736656984.85925
0 0 194353186604.5685
0 0 179596682964.85675
0 0 185518578492.95856
0 0 191974179546.67615
0 0 194970049461.10968
0 0 195143503127.74786
0 0 194519139457.60748
0 0 194638580426.46448
0 0 194844821889.74084
0 0 194519361958.4239
0 0 193625533000.9559
0 0 192772403760.32236
0 0 192606753541.7336
0 0 192780595680.58566
0 0 193327625748.48004
0 0 194559650358.61334
0 0 195240345596.06876
0 0 195297691043.59302
0 0 195192612526.6616
0 0 194954462461.49612
0 0 194630118919.98526
0 0 194098499800.16687
0 0 193686078827.63577
0 0 194022175781.07733
0 0 194771620410.01074
0 0 195226626488.36533
0 0 195312486571.75336
0 0 195306643791.5461
0 0 195310320623.64154
0 0 195302594917.45743
0 0 195216915766.24097
0 0 194895065752.7876
0 0 194486447629.86304
0 0 194844944270.0612
0 0 195016368174.00925
0 0 195171616103.539
0 0 195170025362.81155
0 0 195049337590.94995
0 0 194984856275.2183
0 0 195109847742.986
0 0 195154527936.1086
0 0 194935468844.47888
0 0 194447311354.71268
0 0 194043302323.60812
0 0 193972795661.62802
0 0 194013636928.43942
0 0 194299057145.99475
0 0 194994173777.36215
0 0 195305917721.51813
0 0 195312087950.1472
0 0 195268136691.65964
0 0 195067151413.35446
0 0 194744982271.75806
0 0 194292290356.19702
0 0 193964196711.68015
0 0 194180376567.25522
0 0 194750075922.48218
0 0 195167657819.5376
0 0 195296170915.58707
0 0 195307717490.2567
0 0 195305833811.54926
0 0 195312497339.0295
0 0 195267774578.28952
0 0 195040567587.87918
0 0 194723222963.7617
0 0 63451169954.47189
0 0 147346424892.63696
0 0 187851336295.09497
0 0 193864562248.97955
0 0 194967021449.9728
0 0 195225003218.21527
0 0 195299428338.50012
0 0 195302675434.0268
0 0 195231724109.29272
0 0 195065612103.5275
0 0 194937829816.68234
0 0 194880348907.8363
0 0 194805000413.2424
0 0 194875661125.24277
0 0 195191659443.23282
0 0 195312476677.52673
0 0 195311004758.2422
0 0 195276854634.12143
0 0 195094188387.74426
0 0 194822242155.93542
0 0 194531126747.35867
0 0 194381426977.28757
0 0 194559071123.75974
0 0 194939031232.42157
0 0 195216883932.0931
0 0 195297802187.08783
0 0 195298892824.75937
0 0 195287070717.39984
0 0 195303149262.581
0 0 195305403588.37244
0 0 195199391526.2915
0 0 195024600881.30408
0 0 40259282228.45428
0 0 57463556824.86529
0 0 184323883484.24667
0 0 193897578142.51596
0 0 195190521233.13232
0 0 195312499803.09216
0 0 195299729987.40433
0 0 195305777717.01688
0 0 195309867302.1036
0 0 195282388081.00592
0 0 195251276033.95065
0 0 195206040809.7677
0 0 195123886099.21698
0 0 195124317149.88776
0 0 195263184452.40326
0 0 195312493770.65128
0 0 195312489850.3201
0 0 195265707224.6829
0 0 195101179847.3382
0 0 194911062024.9785
0 0 194782787075.99646
0 0 194776868494.31363
0 0 194924688412.3787
0 0 195139734666.1512
0 0 195274255987.17062
0 0 195302521653.4134
0 0 195282732223.40234
0 0 195242189205.4004
0 0 195256228566.72934
0 0 195302367019.7535
0 0 195305364375.86456
0 0 195259039537.45383
0 0 40533731943.86182
0 0 70407805622.70772
0 0 186728142308.68585
0 0 194561799535.2937
0 0 195309421249.33548
0 0 195284397339.13245
0 0 195289644620.56924
0 0 195305098083.55655
0 0 195312482775.56244
0 0 195305144152.89203
0 0 195288474964.9672
0 0 195254550241.1395
0 0 195205613217.7145
0 0 195221655133.113
0 0 195297627462.0544
0 0 195311023689.56647
0 0 195312499318.8649
0 0 195271053769.1589
0 0 195137717910.3868
0 0 195018135355.5073
0 0 194983297318.484
0 0 195029113047.185
0 0 195131076696.0415
0 0 195238999064.4322
0 0 195294580316.38852
0 0 195298617788.8893
0 0 195258362253.22723
0 0 195197560722.21146
0 0 195207509282.73364
0 0 195263823146.08365
0 0 195302939509.77475
0 0 195312472639.4301
0 0 94797689675.5879
0 0 157387726226.3441
0 0 188820213476.32092
0 0 194771421763.5532
0 0 195309906478.24548
0 0 195277645931.8722
0 0 195302313555.33878
0 0 195312209290.84366
0 0 195306846903.3707
0 0 195284425715.74152
0 0 195255507590.87924
0 0 195230436033.75433
0 0 195227560775.97803
0 0 195272580350.9882
0 0 195312042623.04745
0 0 195302986265.85
0 0 195311647965.347
0 0 195281865896.41882
0 0 195182004453.8666
0 0 195123742965.7436
0 0 195144067691.91675
0 0 195200200811.0202
0 0 195260898782.95593
0 0 195301285095.51334
0 0 195311597588.5924
0 0 195308600550.10135
0 0 195280201395.9168
0 0 195240029016.99316
0 0 195248062841.26883
0 0 195279490451.68076
0 0 195297046325.85724
0 0 195304007474.69254
0 0 179507688980.98065
0 0 187169455185.86807
0 0 193266879579.95428
0 0 195217585002.84106
0 0 195277293491.0048
0 0 195281796567.91644
0 0 195310104345.7796
0 0 195310774981.94702
0 0 195290693954.38507
0 0 195247485112.41534
0 0 195213285308.35297
0 0 195217450014.8354
0 0 195255813122.38626
0 0 195300659034.24118
0 0 195310606548.31934
0 0 195300751280.46985
0 0 195312488211.97876
0 0 195273719308.8901
0 0 195201242409.73303
0 0 195207171517.2735
0 0 195265519824.34705
0 0 195305786130.97012
0 0 195309224690.96753
0 0 195282468988.5409
0 0 195269339768.7461
0 0 195292908413.02618
0 0 195311939811.53342
0 0 195309717459.00732
0 0 195310564210.8755
0 0 195312434905.73038
0 0 195312275713.18246
0 0 195310679488.94797
0 0 193426730228.53287
0 0 194126488506.4064
0 0 195055507727.6837
0 0 195310454952.19342
0 0 195271038617.21875
0 0 195303804684.24387
0 0 195312495042.90628
0 0 195309137483.2062
0 0 195285006989.48685
0 0 195237270526.95746
0 0 195217828214.07678
0 0 195251376825.53085
0 0 195294729702.8875
0 0 195312325295.0449
0 0 195306663414.14905
0 0 195308327856.95087
0 0 195305040725.70822
0 0 195236551067.35193
0 0 195196953206.75296
0 0 195260856600.58594
0 0 195311825216.64407
0 0 195281777143.34808
0 0 195186484888.9586
0 0 195084981441.33133
0 0 195080166595.851
0 0 195166444136.32104
0 0 195246837895.5149
0 0 195279764698.67157
0 0 195279426030.3511
0 0 195273028396.92703
0 0 195285586528.01508
0 0 195300845260.183
0 0 194837956649.58685
0 0 195007946496.6035
0 0 195258841948.95175
0 0 195310489722.57065
0 0 195305926050.80237
0 0 195311747674.47836
0 0 195312310500.4218
0 0 195310271408.01328
0 0 195277576260.5554
0 0 195226762247.5495
0 0 195231166046.90018
0 0 195280581880.87033
0 0 195309982018.25034
0 0 195310669398.98715
0 0 195307381537.6705
0 0 195312481475.64627
0 0 195283728610.79337
0 0 195219589335.84982
0 0 195233586543.85208
0 0 195302950865.90112
0 0 195293670117.4803
0 0 195189343544.332
0 0 195033908200.63287
0 0 194917030897.89627
0 0 194951348827.56442
0 0 195090679627.2347
0 0 195205228325.88153
0 0 195253439690.92743
0 0 195255773104.66147
0 0 195245970956.12845
0 0 195256832186.19763
0 0 195276687479.242
0 0 194913534654.09927
0 0 195080177285.04068
0 0 195269355380.47772
0 0 195312304987.15155
0 0 195304235697.34174
0 0 195300424950.6328
0 0 195306545521.71902
0 0 195306895659.3093
0 0 195237861005.5276
0 0 195175955647.4183
0 0 195206847036.75522
0 0 195274607519.90546
0 0 195309081491.13284
0 0 195311430351.19873
0 0 195310946063.43286
0 0 195310439706.93152
0 0 195290209148.20895
0 0 195280908203.08224
0 0 195305873690.2562
0 0 195301722913.54153
0 0 195225141685.40845
0 0 195109385163.94788
0 0 195003354542.53763
0 0 194971242625.0264
0 0 195059725165.66635
0 0 195198441393.06012
0 0 195284757011.2395
0 0 195309233709.53052
0 0 195311166718.8916
0 0 195308371662.46497
0 0 195306665070.50714
0 0 195308149392.09702
0 0 195154656196.17947
0 0 195248995514.71936
0 0 195312133700.96048
0 0 195283652309.14133
0 0 195249476197.7662
0 0 195257335759.30237
0 0 195301834778.5721
0 0 195294603057.52942
0 0 195185403395.14313
0 0 195109007728.26733
0 0 195145558543.59567
0 0 195237723632.187
0 0 195300198615.60974
0 0 195312492723.27536
0 0 195312465090.79312
0 0 195310431820.98605
0 0 195310776556.23413
0 0 195311563029.7566
0 0 195291457185.94635
0 0 195229155301.95682
0 0 195130284823.79077
0 0 195043942902.25415
0 0 195024594220.58127
0 0 195082307453.64236
0 0 195188606786.8502
0 0 195283135613.42136
0 0 195312362709.53888
0 0 195293045204.42606
0 0 195281341984.74146
0 0 195291056714.9982
0 0 195301126242.48935
0 0 195305656902.13937
0 0 195296774169.86267
0 0 195311309793.54504
0 0 195300739183.34424
0 0 195261480718.73483
0 0 195242507397.25305
0 0 195271099150.8582
0 0 195310512618.24643
0 0 195283714760.1827
0 0 195184617425.37952
0 0 195104070954.61533
0 0 195128795469.09735
0 0 195238290680.07852
0 0 195308070085.74918
0 0 195310155865.58545
0 0 195312199346.80847
0 0 195312395249.6811
0 0 195308185003.55246
0 0 195288997259.28574
0 0 195263249272.1458
0 0 195198908063.28055
0 0 195076947613.79364
0 0 194976239785.42416
0 0 194987921001.5237
0 0 195081001577.92682
0 0 195189635347.11295
0 0 195277773936.5831
0 0 195312347841.08493
0 0 195297095805.7355
0 0 195280402327.78796
0 0 195286833295.2047
0 0 195299502498.86563
0 0 195306730073.75845
0 0 195283818872.14218
0 0 195293951662.2771
0 0 195308304298.12726
0 0 195312276829.3269
0 0 195308333967.1156
0 0 195309093563.87338
0 0 195312489242.62106
0 0 195302911829.90063
0 0 195270006621.89352
0 0 195224665639.53107
0 0 195232535985.71848
0 0 195297955761.4378
0 0 195305594190.03214
0 0 195292782009.80453
0 0 195309950955.61163
0 0 195311598331.28165
0 0 195300947634.35986
0 0 195295483557.2509
0 0 195291695470.9445
0 0 195234881836.5074
0 0 195079370195.4735
0 0 194940745294.65118
0 0 194947401789.9893
0 0 195041107661.2922
0 0 195147098727.36316
0 0 195242897201.48187
0 0 195301915503.74106
0 0 195311195401.2224
0 0 195300985802.50357
0 0 195300416949.79367
0 0 195306091839.5174
0 0 195309831719.5442
0 0 195177506432.6378
0 0 195182564974.40414
0 0 195217323529.8444
0 0 195266180537.16925
0 0 195302429323.46777
0 0 195312365313.321
0 0 195303622383.60153
0 0 195296044918.26178
0 0 195304977841.3429
0 0 195312325746.1361
0 0 195309858667.16254
0 0 195309364586.99326
0 0 195272519812.7566
0 0 195271995743.61728
0 0 195301097439.7364
0 0 195302374934.60245
0 0 195297505383.0387
0 0 195309806893.66672
0 0 195311819656.60632
0 0 195283606421.78702
0 0 195173302205.38245
0 0 195087816357.30423
0 0 195103179507.01883
0 0 195154412947.44366
0 0 195208895579.15082
0 0 195261440817.36667
0 0 195299630473.41873
0 0 195312390353.8194
0 0 195310344452.83887
0 0 195309624232.67667
0 0 195311112970.62665
0 0 195311902227.61798
0 0 195079249554.0062
0 0 195076614859.96475
0 0 195123902137.81345
0 0 195210784439.18628
0 0 195290570357.24277
0 0 195310097570.06647
0 0 195261717720.50305
0 0 195197795935.4605
0 0 195194758913.3167
0 0 195255190801.81012
0 0 195290056512.84152
0 0 195277997117.86533
0 0 195235279922.55734
0 0 195229899190.11905
0 0 195257401313.53006
0 0 195271306975.87347
0 0 195298051919.12036
0 0 195311567584.266
0 0 195306065645.014
0 0 195311640382.18246
0 0 195288388489.9936
0 0 195279534246.5741
0 0 195288080013.99744
0 0 195288623655.7659
0 0 195285962732.37045
0 0 195286083015.03702
0 0 195290722741.0116
0 0 195296179868.44403
0 0 195295176707.0942
0 0 195285845119.55615
0 0 195273389825.5823
0 0 195268627547.97147
0 0 195000490754.0445
0 0 194976729513.70667
0 0 195017202375.9335
0 0 195131190173.33896
0 0 195256619302.25043
0 0 195312320260.00116
0 0 195273534999.30832
0 0 195181022156.46655
0 0 195122901978.8806
0 0 195160632447.77164
0 0 195214034863.70648
0 0 195210592115.972
0 0 195161711571.66357
0 0 195139775120.65494
0 0 195178838731.20203
0 0 195243806142.7915
0 0 195303686649.12204
0 0 195306846571.25693
0 0 195298677376.48703
0 0 195309764911.98633
0 0 195312382672.55377
0 0 195310856234.99307
0 0 195310468202.87936
0 0 195311387254.3554
0 0 195293654213.46072
0 0 195259402755.99963
0 0 195223522619.32156
0 0 195193345004.9067
0 0 195147789876.58813
0 0 195074114540.75345
0 0 194998250453.7275
0 0 194966481150.6724
0 0 195020912578.2696
0 0 194959543082.51596
0 0 194953249618.27884
0 0 195050482054.0589
0 0 195189195781.60507
0 0 195286008931.64755
0 0 195311695965.48245
0 0 195263322260.7169
0 0 195166930951.71884
0 0 195107896060.21707
0 0 195099404337.48
0 0 195080433622.0631
0 0 195041598247.3409
0 0 195053941288.12988
0 0 195142922304.42996
0 0 195248278445.9718
0 0 195308580893.3625
0 0 195306818856.2934
0 0 195303630533.3356
0 0 195309035158.45633
0 0 195308793178.75906
0 0 195304129685.13907
0 0 195310557022.2259
0 0 195301672828.74365
0 0 195243456158.50012
0 0 195163238962.73682
0 0 195098227992.13397
0 0 195051788233.26416
0 0 194966043228.0369
0 0 194790829505.10382
0 0 194565201605.66547
0 0 194424079206.00458
0 0 195234070146.09677
0 0 195166720767.13123
0 0 195100530545.49448
0 0 195115647007.53305
0 0 195183714980.49615
0 0 195245903338.13568
0 0 195293637029.95142
0 0 195310531789.29156
0 0 195241511455.48218
0 0 195111497073.47485
0 0 195007897637.4617
0 0 194966306824.35156
0 0 194988738776.08173
0 0 195072730812.14566
0 0 195176051008.83682
0 0 195266103745.86804
0 0 195310641126.1091
0 0 195308942010.40314
0 0 195307971382.01474
0 0 195309447127.2853
0 0 195308594404.1299
0 0 195310249498.29324
0 0 195308377502.40552
0 0 195252841559.41608
0 0 195157229961.52884
0 0 195078322001.81845
0 0 195033984548.75558
0 0 194986103978.56702
0 0 194822963535.99155
0 0 194414750592.23087
0 0 193813829224.581
0 0 193390466469.3213
0 0 195305233242.49866
0 0 195308586648.8087
0 0 195265448743.10797
0 0 195238694714.48477
0 0 195248216047.4711
0 0 195261721358.7455
0 0 195282859660.94955
0 0 195311465969.11328
0 0 195278291816.81122
0 0 195157230876.37265
0 0 195038417275.95358
0 0 195022418780.52823
0 0 195107616919.42746
0 0 195199736997.9573
0 0 195251697579.53745
0 0 195290991659.71848
0 0 195311867981.65222
0 0 195311272143.2338
0 0 195311056189.18784
0 0 195310870221.63348
0 0 195312027584.55414
0 0 195307796976.03104
0 0 195256726436.41586
0 0 195155237814.94727
0 0 195083359088.72403
0 0 195054737224.81375
0 0 195023547186.01144
0 0 194924054849.62784
0 0 194607323211.26224
0 0 193881237252.78058
0 0 192928486223.39584
0 0 192389241853.57697
0 0 195211747559.24942
0 0 195289620885.5851
0 0 195311710560.60843
0 0 195304169395.3661
0 0 195308027262.43344
0 0 195310975973.42154
0 0 195312411833.87973
0 0 195306429475.76062
0 0 195263208976.11728
0 0 195180395562.433
0 0 195118542732.98294
0 0 195153332930.943
0 0 195250045106.21408
0 0 195301296385.96027
0 0 195311060295.4161
0 0 195312316087.53033
0 0 195308329811.44284
0 0 195308957279.08212
0 0 195311475000.4899
0 0 195312433732.5753
0 0 195306939768.36038
0 0 195249833020.15353
0 0 195110621670.82214
0 0 195004252431.93646
0 0 195008771604.62042
0 0 195038915277.99518
0 0 195016469821.7549
0 0 194915213352.1347
0 0 194695919455.00745
0 0 194421278101.1566
0 0 194459222693.16144
0 0 194775201263.25174
0 0 195144516619.55362
0 0 195243905422.8984
0 0 195298755286.57166
0 0 195302370628.33932
0 0 195282206429.33206
0 0 195255894743.06442
0 0 195240325156.55817
0 0 195222058155.23602
0 0 195195093723.39343
0 0 195165498278.23477
0 0 195153623498.4545
0 0 195207670193.9526
0 0 195293074658.10852
0 0 195310322399.47357
0 0 195289803615.65063
0 0 195273504478.9363
0 0 195275187816.58286
0 0 195295107476.4585
0 0 195308321304.70404
0 0 195312454190.3667
0 0 195290450506.9717
0 0 195176675574.27908
0 0 194998062290.79492
0 0 194933348424.0914
0 0 195005031672.58542
0 0 195080022886.61743
0 0 195112650404.4379
0 0 195168997379.87418
0 0 195291439910.14554
0 0 195062229687.1649
0 0 191938535674.24564
0 0 185003811285.87704
0 0 195159200374.8739
0 0 195232603487.56534
0 0 195274764532.0459
0 0 195263386934.36954
0 0 195209309727.98547
0 0 195149910486.93677
0 0 195125742295.04694
0 0 195140245452.40964
0 0 195172889412.488
0 0 195185333947.1559
0 0 195165529721.60562
0 0 195175955609.18475
0 0 195257447198.23425
0 0 195311071483.87198
0 0 195295081965.52066
0 0 195257061431.48904
0 0 195248789113.71652
0 0 195273122559.08267
0 0 195298155120.60757
0 0 195311849930.88617
0 0 195297391309.80353
0 0 195204951591.69705
0 0 195064114959.0787
0 0 195019685515.42612
0 0 195092002519.62796
0 0 195178179413.53308
0 0 195261959890.01392
0 0 195293845952.0098
0 0 194256314286.14093
0 0 186779972290.83908
0 0 160822985885.97504
0 0 130913523083.61449
0 0 195280699637.19733
0 0 195299541420.51108
0 0 195305864399.52112
0 0 195293644928.6602
0 0 195253632765.75372
0 0 195198853544.49316
0 0 195168089397.19427
0 0 195190460654.12482
0 0 195235363103.49298
0 0 195242151734.63547
0 0 195179721262.02325
0 0 195089817708.96628
0 0 195110220988.7339
0 0 195231538588.69257
0 0 195310259527.52353
0 0 195288374792.44684
0 0 195255987814.26144
0 0 195272063004.69952
0 0 195299056045.17932
0 0 195311192627.34067
0 0 195307797022.66635
0 0 195255416061.44138
0 0 195138011735.87393
0 0 195064926237.5129
0 0 195110799039.59018
0 0 195209756496.3467
0 0 195310573748.77393
0 0 194899442064.39392
0 0 190809783546.00186
0 0 172908686682.8386
0 0 134735995893.94832
0 0 105599457549.686
0 0 195288197638.4425
0 0 195279651793.2325
0 0 195285243931.03595
0 0 195305688549.7712
0 0 195310908618.89194
0 0 195284090930.08243
0 0 195249315861.36896
0 0 195255009055.42258
0 0 195282900951.8706
0 0 195281099731.24164
0 0 195206869252.50046
0 0 195046326874.55908
0 0 194968285319.5934
0 0 195100957011.7874
0 0 195278438183.75647
0 0 195307484404.29254
0 0 195288733143.75244
0 0 195305146763.24356
0 0 195312490126.12878
0 0 195312009995.60883
0 0 195308122304.62863
0 0 195265386176.58972
0 0 195135091334.15662
0 0 195030996512.04407
0 0 195074079204.38733
0 0 195203061061.20813
0 0 195310869432.4111
0 0 194546542054.309
0 0 189354118248.83588
0 0 172174550638.90717
0 0 142138610316.80405
0 0 119567812012.88002
0 0 195215739503.112
0 0 195212952738.13376
0 0 195237399212.9102
0 0 195281709016.50525
0 0 195310803602.55115
0 0 195301968868.77905
0 0 195273660154.21872
0 0 195277880280.71683
0 0 195299729805.07336
0 0 195301028961.0268
0 0 195256483625.45053
0 0 195131953635.9715
0 0 195037735077.73898
0 0 195126362533.503
0 0 195279970115.809
0 0 195311215750.7295
0 0 195309996789.04663
0 0 195306992851.56543
0 0 195287488455.1827
0 0 195289247504.03864
0 0 195284648456.0285
0 0 195221660721.6655
0 0 195066183050.08698
0 0 194968416851.52847
0 0 195041604944.73807
0 0 195194797639.88937
0 0 195310958552.69043
0 0 194637395350.65475
0 0 190697640900.56622
0 0 179406025970.04474
0 0 160768455306.2133
0 0 145930599796.55826
0 0 195278996915.5794
0 0 195278286294.25705
0 0 195290649150.06702
0 0 195308329507.88315
0 0 195311042239.05502
0 0 195294879843.75378
0 0 195282808848.12698
0 0 195298620818.78534
0 0 195312218932.00363
0 0 195311859484.89398
0 0 195310562923.49457
0 0 195281607061.61627
0 0 195241225929.60934
0 0 195262194371.97552
0 0 195308302962.63095
0 0 195310343414.38766
0 0 195311689951.30472
0 0 195266227066.66672
0 0 195187674307.93417
0 0 195146548815.5902
0 0 195102965655.7352
0 0 194968890560.62912
0 0 194764348258.2094
0 0 194733010246.53745
0 0 194935278771.46487
0 0 195170063034.50702
0 0 195312482831.6194
0 0 194911482576.4196
0 0 192765894060.54398
0 0 187169504332.62503
0 0 178017786999.75552
0 0 170342633048.0255
0 0 195312499937.36203
0 0 195312452616.95813
0 0 195312288394.97287
0 0 195308067308.54947
0 0 195299877604.9463
0 0 195296645762.0569
0 0 195304742366.88135
0 0 195312313825.5794
0 0 195293829230.0737
0 0 195268088980.13287
0 0 195270988356.75537
0 0 195293751544.97278
0 0 195308810616.55295
0 0 195310716588.06314
0 0 195305738240.98383
0 0 195306840434.64734
0 0 195306774004.81796
0 0 195203562616.0096
0 0 194970332318.57883
0 0 194692502371.84955
0 0 194430230509.25632
0 0 194128419430.1476
0 0 193892361997.6174
0 0 194082235689.66165
0 0 194610009960.206
0 0 195059645099.02798
0 0 195304318617.33374
0 0 195059838423.358
0 0 193685845588.36954
0 0 190582645971.69055
0 0 185857655005.5738
0 0 181954538686.5446
0 0 195310190766.36874
0 0 195309611634.60477
0 0 195304836072.5954
0 0 195293418994.5248
0 0 195287710517.60492
0 0 195296093702.67874
0 0 195309093954.4897
0 0 195310154526.857
0 0 195284621248.46384
0 0 195242621032.6323
0 0 195207927483.82904
0 0 195203632985.44424
0 0 195231101548.8327
0 0 195257747866.00012
0 0 195274900998.33505
0 0 195299372904.68655
0 0 195306759387.57132
0 0 195158040224.39075
0 0 194685494217.99924
0 0 193937374383.3934
0 0 193226075588.64908
0 0 192666460634.67728
0 0 192423278391.213
0 0 192876636390.32712
0 0 193787386815.1233
0 0 194590384728.71613
0 0 195165209734.81937
0 0 195244766754.18594
0 0 194277419207.52658
0 0 192127690946.8717
0 0 189104085816.7822
0 0 186745168462.18152
0 0 195306966444.91306
0 0 195311996780.59195
0 0 195307284425.95096
0 0 195284425658.35428
0 0 195270106855.9703
0 0 195277552102.66223
0 0 195292128704.94214
0 0 195306018357.6512
0 0 195312499256.88113
0 0 195302804319.59506
0 0 195269956928.06253
0 0 195240207054.77707
0 0 195245314793.99084
0 0 195262142753.66016
0 0 195273502300.3209
0 0 195291702950.10498
0 0 195311999403.4158
0 0 195168475741.40207
0 0 194483055923.64764
0 0 193208661676.8882
0 0 191974983711.96875
0 0 191139502852.07147
0 0 190797129792.9365
0 0 191195505878.686
0 0 192216931241.69223
0 0 193497438880.0834
0 0 194761464901.0825
0 0 195306536193.49854
0 0 194395165246.5269
0 0 192219741455.5808
0 0 189399753487.79752
0 0 187409653379.16782
0 0 195155599955.93784
0 0 195238878354.5695
0 0 195303739901.26184
0 0 195309034741.88678
0 0 195295832306.81833
0 0 195291991103.8029
0 0 195287781776.48404
0 0 195280680797.73276
0 0 195278981839.3013
0 0 195293675844.73584
0 0 195310081009.04175
0 0 195312495648.74353
0 0 195312134825.8193
0 0 195312165744.99265
0 0 195310426404.5663
0 0 195301120974.46747
0 0 195311726958.5391
0 0 195206213711.37546
0 0 194407835816.83682
0 0 192690501237.9409
0 0 190940960964.15027
0 0 189807873423.40402
0 0 189247235096.076
0 0 189274972721.6315
0 0 190166374460.98322
0 0 192106246461.94055
0 0 194343309827.29343
0 0 195310833029.8516
0 0 194110661812.93582
0 0 191043814613.0984
0 0 187105221706.3652
0 0 184596979618.35004
0 0 194655625734.46472
0 0 194978733751.4642
0 0 195207683995.89334
0 0 195295371043.2025
0 0 195310719483.57526
0 0 195312478100.23428
0 0 195308875420.31534
0 0 195286283778.76743
0 0 195245024194.63083
0 0 195226934878.0145
0 0 195243368743.44666
0 0 195239979634.30188
0 0 195209511771.6881
0 0 195223100620.08496
0 0 195291103496.0051
0 0 195311261817.9121
0 0 195309512899.52487
0 0 195235067064.6396
0 0 194365975110.37772
0 0 192263888549.49677
0 0 190033295868.84903
0 0 188629629682.2369
0 0 187876500495.81265
0 0 187543038252.32684
0 0 188295130075.13513
0 0 190852232989.93954
0 0 193932516054.25095
0 0 195309838093.46042
0 0 194108675395.7388
0 0 190367682630.5917
0 0 185200529047.73767
0 0 182207703913.9735
# End: Data Text
# End: Segment
