# OOMMF OVF 2.0
# Segment count: 1
# Begin: Segment
# Begin: Header
# Title: m
# meshtype: rectangular
# meshunit: m
# xmin: 0
# ymin: 0
# zmin: 0
# xmax: 1.6e-07
# ymax: 1.6e-07
# zmax: 5e-09
# valuedim: 3
# valuelabels: m_x m_y m_z
# valueunits: 1 1 1
# Desc: Total simulation time:  5.204197336302541e-11  s
# xbase: 2.5e-09
# ybase: 2.5e-09
# zbase: 2.5e-09
# xnodes: 32
# ynodes: 32
# znodes: 1
# xstepsize: 5e-09
# ystepsize: 5e-09
# zstepsize: 5e-09
# End: Header
# Begin: Data Text
-0.21307385 0.031666975 -0.9765228 
-0.29507756 0.3172072 -0.9012818 
-0.33475903 0.661453 -0.67113066 
-0.3048355 0.8511298 -0.42737973 
-0.24388503 0.93358535 -0.2625618 
-0.17230976 0.97061443 -0.16797939 
-0.10722366 0.98685765 -0.12089344 
-0.06351983 0.9931253 -0.09832326 
-0.049433403 0.995411 -0.08193611 
-0.060709264 0.9958963 -0.067120425 
-0.07762305 0.9956402 -0.051723834 
-0.08914 0.9953301 -0.037041526 
-0.09688386 0.99462736 -0.03647022 
-0.10351806 0.992969 -0.057416722 
-0.10354625 0.99056166 -0.08981009 
-0.091985576 0.9894379 -0.11203302 
-0.067067154 0.9912353 -0.11381819 
-0.028587656 0.9952152 -0.09343284 
0.0012329584 0.9985345 -0.054106 
-0.0011535502 0.9999776 -0.0066110417 
-0.030964142 0.9988445 0.036756985 
-0.063717976 0.9965267 0.05361611 
-0.07257842 0.9970435 0.0252339 
-0.049294416 0.9986083 -0.01875039 
-0.018360877 0.99956334 -0.023155285 
-0.0088750245 0.999858 0.014329082 
-0.020438474 0.99875945 0.045408484 
-0.031867813 0.99846286 0.045347147 
-0.032645516 0.99898314 0.03109586 
-0.030940775 0.99942565 0.013820281 
-0.03276627 0.9993703 -0.013622831 
-0.037609756 0.99846774 -0.04059446 
-0.39312246 0.61057645 -0.68749636 
-0.39472643 0.71766746 -0.5737112 
-0.35659194 0.84293926 -0.40285945 
-0.2989861 0.91950905 -0.25516737 
-0.23860756 0.95812154 -0.15833369 
-0.18044865 0.97820866 -0.10269483 
-0.1303349 0.98858273 -0.07561145 
-0.09268314 0.9934757 -0.06645323 
-0.07078928 0.99549186 -0.06312626 
-0.06550073 0.9961605 -0.05808544 
-0.068443276 0.99650675 -0.047851935 
-0.07404018 0.9965893 -0.03644019 
-0.08156165 0.995993 -0.03668434 
-0.09015443 0.9944929 -0.053443927 
-0.093142055 0.9926368 -0.07743893 
-0.085386455 0.9920686 -0.09224572 
-0.06537404 0.9936564 -0.091505595 
-0.03360089 0.99669045 -0.074020945 
-0.008853321 0.9990836 -0.04187791 
-0.010205123 0.99994326 -0.0030571853 
-0.03269458 0.9989122 0.03325024 
-0.05538298 0.99728805 0.048470568 
-0.05699791 0.9980246 0.026425915 
-0.032489255 0.9994323 -0.008919431 
-0.0031368048 0.99992126 -0.012156044 
0.0075526624 0.999811 0.017917404 
0.00015048661 0.9991497 0.04123068 
-0.008569123 0.99923545 0.038146406 
-0.009601017 0.99967736 0.023515148 
-0.008366043 0.9999392 0.0071905856 
-0.008574192 0.9998255 -0.016597461 
-0.008539199 0.99918324 -0.03949793 
-0.32908112 0.92633605 -0.18332241 
-0.3258962 0.9336237 -0.1487904 
-0.29817644 0.94937885 -0.09884692 
-0.26075307 0.9637981 -0.05568762 
-0.2245124 0.9740222 -0.029582586 
-0.1920533 0.9812195 -0.018001106 
-0.16341984 0.9863862 -0.018341849 
-0.13470055 0.9904089 -0.0307584 
-0.104391634 0.9934468 -0.046538644 
-0.0794942 0.9954011 -0.053455494 
-0.065053396 0.996728 -0.047971684 
-0.061515383 0.9973501 -0.038842563 
-0.06543604 0.99711937 -0.038354564 
-0.07258653 0.99618334 -0.048477035 
-0.07622808 0.9951734 -0.061799373 
-0.07220513 0.9950558 -0.06819433 
-0.05892823 0.996148 -0.06493668 
-0.036389112 0.998041 -0.050892126 
-0.018397568 0.9994601 -0.027220987 
-0.01868418 0.999825 0.0009179823 
-0.03237773 0.99909425 0.027611824 
-0.042900927 0.9983236 0.038851935 
-0.035935394 0.99910825 0.02216818 
-0.011163363 0.9999285 -0.0042948723 
0.013806474 0.9998834 -0.00653173 
0.023279069 0.9996101 0.015414431 
0.01868158 0.9993422 0.031086005 
0.011576737 0.99959105 0.026149757 
0.00928833 0.9998799 0.012409912 
0.009588883 0.999952 -0.002012695 
0.010465857 0.99972117 -0.021169888 
0.012276684 0.99916184 -0.039049737 
-0.1840928 0.97652495 0.11184383 
-0.19697939 0.97416365 0.110473424 
-0.20406589 0.97332656 0.10484529 
-0.20599927 0.97411484 0.09308466 
-0.20567968 0.97571206 0.075378045 
-0.20127024 0.9780451 0.05401914 
-0.19034877 0.98132366 0.027774481 
-0.16807579 0.9857498 -0.0069358917 
-0.13258459 0.99035734 -0.04017152 
-0.09511112 0.99386686 -0.05641391 
-0.0683269 0.99619496 -0.054102905 
-0.05472082 0.99747574 -0.04525325 
-0.049590047 0.99794865 -0.040490646 
-0.049497835 0.99792314 -0.041223604 
-0.05081959 0.99775183 -0.043689877 
-0.051076226 0.9977753 -0.042846486 
-0.046469446 0.9982112 -0.03761842 
-0.034060523 0.9990611 -0.026774686 
-0.022382196 0.99968374 -0.011469561 
-0.021073582 0.9997647 0.005149561 
-0.026431039 0.99945354 0.019849865 
-0.026154444 0.99937403 0.023822926 
-0.012891083 0.9998697 0.009720032 
0.008178553 0.99991894 -0.009758006 
0.02410383 0.9996317 -0.012475466 
0.028657481 0.9995884 0.0013540195 
0.02411136 0.9996409 0.011697449 
0.016352355 0.9998327 0.008199273 
0.011298648 0.9999344 -0.0019261175 
0.010027252 0.9998677 -0.012817749 
0.011634348 0.99957556 -0.026711993 
0.014546812 0.9991167 -0.03942467 
-0.043490343 0.96462035 0.2600314 
-0.069186054 0.9663095 0.24790974 
-0.1062452 0.9691553 0.22237368 
-0.14517006 0.9715791 0.18697561 
-0.17862254 0.97292155 0.14668919 
-0.19723032 0.97477186 0.10449968 
-0.19766 0.9785221 0.058524992 
-0.17995384 0.9836566 0.0060291323 
-0.14544351 0.98853004 -0.04067635 
-0.10595151 0.9922828 -0.06441462 
-0.07414179 0.99514776 -0.06468366 
-0.050958447 0.9972521 -0.0537743 
-0.03308695 0.9985921 -0.041463073 
-0.022411056 0.99925214 -0.03151408 
-0.020538101 0.9995023 -0.023946702 
-0.025115946 0.9995422 -0.016871668 
-0.028123718 0.999555 -0.00995322 
-0.023608303 0.9997177 -0.0026789717 
-0.016529718 0.9998577 0.00339315 
-0.014361141 0.9998713 0.007158247 
-0.015024122 0.99985284 0.00828768 
-0.009390582 0.9999497 0.0035260047 
0.004460371 0.9999452 -0.00947185 
0.017320381 0.9995692 -0.023696868 
0.021892462 0.9993734 -0.027814683 
0.02035292 0.9995793 -0.020663852 
0.014571174 0.99981517 -0.012540529 
0.005109773 0.9999193 -0.011639432 
-0.0029918712 0.9998666 -0.016063524 
-0.0057939016 0.9997327 -0.022383953 
-0.0034807303 0.99950814 -0.031166788 
0.0006152498 0.9992256 -0.039344836 
0.042911187 0.9435264 0.32850683 
0.010217116 0.9501331 0.3116774 
-0.043942165 0.9591202 0.27956688 
-0.1048501 0.96613884 0.23575878 
-0.15823832 0.96996933 0.18471663 
-0.18886748 0.9734956 0.12897794 
-0.19366102 0.97864306 0.06894503 
-0.1783435 0.9839537 0.0053702313 
-0.14776586 0.9878408 -0.04833157 
-0.11149125 0.9908632 -0.07589405 
-0.077618346 0.99397016 -0.07745125 
-0.044626486 0.9969632 -0.06381839 
-0.013496275 0.9989513 -0.043752268 
0.0065523023 0.9997041 -0.023430172 
0.010081626 0.9999324 -0.0058025424 
0.001773876 0.99996907 0.007665858 
-0.0062434254 0.9998634 0.015311548 
-0.0068505607 0.9998339 0.01689391 
-0.003374467 0.99992305 0.011936971 
-0.0025623555 0.99999344 0.002589772 
-0.0037639698 0.99995714 -0.008460709 
0.0008392263 0.999807 -0.019630173 
0.00962078 0.9995222 -0.029373515 
0.011101707 0.99923486 -0.037503164 
0.0044336496 0.99909186 -0.04237678 
-0.0015612988 0.99921167 -0.039670255 
-0.007340061 0.9995016 -0.03070506 
-0.017499859 0.9995744 -0.023339259 
-0.027275886 0.9993978 -0.021450887 
-0.030427787 0.9992555 -0.02372156 
-0.026938373 0.9992208 -0.028848588 
-0.021532366 0.99919295 -0.03390804 
0.09194556 0.9332821 0.34717542 
0.056139793 0.94230855 0.3300046 
-0.0061012628 0.9540867 0.29946852 
-0.07742819 0.9636844 0.2555724 
-0.1396018 0.96984 0.199804 
-0.17488544 0.9752839 0.135042 
-0.18162483 0.9811178 0.06648543 
-0.16908905 0.98560053 -0.0007067897 
-0.14323696 0.98820376 -0.05418972 
-0.11051867 0.9905391 -0.081351735 
-0.074974 0.9936358 -0.08406545 
-0.03431513 0.9968937 -0.07089119 
0.00541788 0.9988445 -0.047753844 
0.02965199 0.9993443 -0.020781672 
0.031986374 0.9994781 0.0045147757 
0.02057248 0.99954855 0.021895362 
0.009662866 0.9995697 0.027696 
0.005553494 0.99973106 0.022516597 
0.005629458 0.99994725 0.0085940305 
0.003517248 0.9999569 -0.008594506 
-0.0007365176 0.9996968 -0.024611648 
8.714514e-05 0.99939203 -0.03486451 
0.0017454952 0.9993134 -0.03700974 
-0.006639477 0.999237 -0.038487487 
-0.019384682 0.9988811 -0.043138906 
-0.025279848 0.9988243 -0.041363705 
-0.029218113 0.9991609 -0.02870184 
-0.038773414 0.99913245 -0.015202036 
-0.048027545 0.9988012 -0.009463467 
-0.049593225 0.9987126 -0.01067063 
-0.044233236 0.9989065 -0.015144851 
-0.037648182 0.99910754 -0.019150704 
0.087629944 0.9315564 0.35287914 
0.053041756 0.9406564 0.33518952 
-0.007205303 0.9524483 0.3046153 
-0.075835235 0.9627799 0.25943002 
-0.13379523 0.9707445 0.199384 
-0.16482341 0.9778488 0.12901562 
-0.1696964 0.9838199 0.057459578 
-0.15799154 0.9874141 -0.0072193635 
-0.134389 0.98939365 -0.05513593 
-0.10325461 0.9915242 -0.07885581 
-0.06635512 0.99438876 -0.08238948 
-0.021422897 0.99720347 -0.071598515 
0.021679413 0.9985661 -0.048947684 
0.045657814 0.99876505 -0.019588701 
0.044558395 0.9989717 0.008383376 
0.028767454 0.99929035 0.024319196 
0.013094372 0.99962205 0.024172116 
0.0035133658 0.99992895 0.011399626 
-0.0008281521 0.9999689 -0.007843239 
-0.0054880623 0.9996612 -0.025447061 
-0.01107228 0.9992457 -0.037222646 
-0.011954037 0.9991931 -0.038346805 
-0.014709144 0.999473 -0.028941184 
-0.027503354 0.99935603 -0.023045158 
-0.03924209 0.99890697 -0.025399126 
-0.039912116 0.99898887 -0.02069672 
-0.039552797 0.9992144 -0.002500291 
-0.046624754 0.9987965 0.015222955 
-0.053140324 0.99836564 0.02102779 
-0.05158406 0.9985185 0.017318789 
-0.04431306 0.99896014 0.010725017 
-0.03736917 0.99928236 0.0061931787 
0.050236963 0.9447063 0.32404658 
0.021872133 0.95180535 0.30592197 
-0.027044453 0.96068525 0.2763197 
-0.082402065 0.9689448 0.23314379 
-0.12774387 0.9762224 0.17513265 
-0.1503034 0.9827601 0.107664384 
-0.15172723 0.98753667 0.041835137 
-0.13941532 0.9901417 -0.013518314 
-0.116054684 0.9918813 -0.05198975 
-0.085341156 0.9939016 -0.06983216 
-0.048588887 0.9962489 -0.071605645 
-0.0042051193 0.9980974 -0.06151373 
0.0360978 0.99851555 -0.040789098 
0.055308048 0.9983776 -0.01353633 
0.048240837 0.9987778 0.010755301 
0.02625594 0.99947304 0.019084923 
0.0042699794 0.9999455 0.00953239 
-0.011170867 0.9998835 -0.010409401 
-0.01875844 0.99935573 -0.0306 
-0.023903308 0.99882275 -0.042211596 
-0.028313458 0.99865127 -0.043519966 
-0.0292106 0.9990714 -0.03167235 
-0.034623776 0.99933183 -0.011714832 
-0.046781678 0.99890405 -0.0014755572 
-0.05027806 0.998735 -0.00080623245 
-0.040840704 0.9991074 0.010788415 
-0.034541078 0.998748 0.03618581 
-0.038163327 0.997706 0.05591347 
-0.0406613 0.99743414 0.058922745 
-0.03545784 0.9980427 0.051512737 
-0.027039759 0.9987205 0.042733785 
-0.020906586 0.9990675 0.037776772 
0.009201931 0.9602048 0.2791453 
-0.011653419 0.96545595 0.26030573 
-0.046510883 0.97174263 0.23141517 
-0.08551877 0.97773325 0.19163574 
-0.11677605 0.98333764 0.13932149 
-0.1309953 0.9881222 0.08034101 
-0.12923302 0.99127126 0.026080789 
-0.115614526 0.9931525 -0.01677807 
-0.09100936 0.99481773 -0.04533168 
-0.06003618 0.9965513 -0.05728326 
-0.024948817 0.99807864 -0.056716286 
0.014532519 0.9987835 -0.04711964 
0.0468565 0.998469 -0.029397847 
0.057574555 0.9983211 -0.0063424148 
0.04293924 0.99900955 0.011673543 
0.015054135 0.99982065 0.011489296 
-0.011443085 0.9999204 -0.005324854 
-0.029509697 0.999172 -0.028011214 
-0.03706166 0.9983361 -0.044176076 
-0.04012989 0.99810475 -0.046655063 
-0.04155907 0.9984549 -0.036885925 
-0.041944835 0.99900365 -0.015243472 
-0.048213743 0.9988041 0.008120637 
-0.05470998 0.9983596 0.01688275 
-0.045362532 0.99877447 0.019794878 
-0.024872582 0.99893886 0.03876434 
-0.013151481 0.99753124 0.06898165 
-0.012748454 0.9961129 0.08715841 
-0.010338599 0.99622476 0.08619375 
-0.0017555436 0.9970468 0.076776795 
0.0064268517 0.99763346 0.06845627 
0.010358098 0.99784994 0.064716496 
-0.030585047 0.9736198 0.22611742 
-0.044653904 0.9773242 0.2069869 
-0.06557302 0.98171395 0.17871206 
-0.08687539 0.9859801 0.14246386 
-0.102016956 0.98996043 0.09783085 
-0.106493644 0.99298924 0.051298287 
-0.10100009 0.99481064 0.012278328 
-0.08607205 0.996152 -0.016522584 
-0.060816023 0.9975212 -0.035396527 
-0.03042866 0.99863017 -0.04256655 
0.0012716713 0.99918175 -0.040425494 
0.0318552 0.9990004 -0.03136038 
0.051279582 0.9985401 -0.016975943 
0.050244596 0.99873704 6.928172e-05 
0.028027505 0.9995596 0.009757605 
-0.0027169932 0.99999374 0.0022889676 
-0.029104276 0.9994361 -0.016753625 
-0.044967502 0.9983417 -0.035943765 
-0.048903316 0.9978624 -0.043349743 
-0.04766419 0.99825 -0.03500273 
-0.04506818 0.99885833 -0.015840271 
-0.044215813 0.9989743 0.009761858 
-0.048439723 0.998417 0.02858463 
-0.045002893 0.99852496 0.030377224 
-0.021449292 0.9992374 0.032627568 
0.007795474 0.9984703 0.054738954 
0.022782665 0.9962417 0.08356754 
0.027229527 0.9950639 0.09542723 
0.035145573 0.9953572 0.08960346 
0.04678689 0.99567986 0.0802031 
0.053792745 0.99573904 0.07490139 
0.054709923 0.9957779 0.07371034 
-0.05674767 0.9832233 0.17335404 
-0.06584761 0.9856148 0.15565245 
-0.075681925 0.9887459 0.12904912 
-0.08144575 0.9920128 0.096318096 
-0.08180867 0.9948454 0.05991771 
-0.07770538 0.9966152 0.026836613 
-0.06978415 0.99755657 0.0033225329 
-0.055453353 0.998385 -0.012348083 
-0.031785384 0.9992242 -0.023253132 
-0.0037715328 0.99961513 -0.027486403 
0.022942215 0.99942666 -0.024900433 
0.04310408 0.9989295 -0.0167941 
0.049834833 0.99873763 -0.0063041253 
0.039222233 0.9992241 0.0035712754 
0.012878245 0.9999058 0.004743949 
-0.017255707 0.9998282 -0.006779467 
-0.04091596 0.99889773 -0.023005607 
-0.052633908 0.99802464 -0.034300633 
-0.052249618 0.9981603 -0.030757861 
-0.046747774 0.99882686 -0.012638467 
-0.03997515 0.99913454 0.011495725 
-0.036122322 0.99876606 0.03408275 
-0.03425935 0.99851483 0.04236149 
-0.018299358 0.9992258 0.03482777 
0.016066805 0.9992797 0.034381606 
0.04703527 0.9974463 0.053746358 
0.06053571 0.99544096 0.07370733 
0.06784945 0.9948838 0.07485095 
0.081098385 0.99467427 0.063609906 
0.095242545 0.9939192 0.055259526 
0.100700356 0.9934602 0.053818163 
0.09863948 0.99358755 0.0552645 
-0.07308774 0.98957527 0.12409251 
-0.07812168 0.99095076 0.10915034 
-0.079510435 0.99320394 0.084994055 
-0.07354915 0.99575806 0.05528635 
-0.06283547 0.9976885 0.025876187 
-0.05257353 0.998608 0.004247712 
-0.043559194 0.9990275 -0.0068371394 
-0.03083742 0.99943995 -0.012999148 
-0.010007966 0.9997792 -0.018477008 
0.01428323 0.999685 -0.020635383 
0.0355194 0.99922544 -0.016936611 
0.04728001 0.99884933 -0.008042355 
0.04594733 0.9989431 0.0012541275 
0.030536579 0.9995114 0.006675993 
0.0036678712 0.9999901 0.0025454871 
-0.023884706 0.9996724 -0.009200051 
-0.043119688 0.99886924 -0.020027574 
-0.048815034 0.9985599 -0.0222564 
-0.04320229 0.9990268 -0.008896912 
-0.03332679 0.9993349 0.014808483 
-0.022349644 0.9990526 0.03734295 
-0.0141929025 0.9986426 0.050115824 
-0.004339369 0.9989967 0.04457296 
0.02162757 0.9993736 0.028012743 
0.058003254 0.99804795 0.023151949 
0.08155775 0.99609476 0.033817742 
0.08875972 0.9952691 0.03951281 
0.096877836 0.99488497 0.028613647 
0.11357444 0.99344754 0.012765435 
0.12839557 0.991708 0.0054579205 
0.13156201 0.99128646 0.0065230066 
0.12675805 0.9918918 0.0091184685 
-0.07724063 0.99434596 0.07286969 
-0.078204505 0.9949737 0.06254181 
-0.07330603 0.9963342 0.044095412 
-0.060578223 0.9979522 0.02053261 
-0.04461739 0.9990038 -0.0008377268 
-0.032429066 0.99938816 -0.013108192 
-0.024404133 0.99956745 -0.01641493 
-0.0145337945 0.9997342 -0.017900553 
0.0014157884 0.9997789 -0.020977866 
0.01965095 0.9995571 -0.022350691 
0.03467698 0.999242 -0.017690998 
0.040548343 0.99915177 -0.0071820854 
0.035656646 0.99935937 0.0031110966 
0.01986109 0.9997751 0.007436586 
-0.0039638546 0.99998873 0.00262036 
-0.025917819 0.99964917 -0.0054702656 
-0.036876813 0.9992807 -0.008844644 
-0.033131193 0.99945015 -0.0013117882 
-0.020965442 0.99958897 0.019556003 
-0.007000744 0.9990464 0.043098878 
0.007904108 0.9983362 0.05711915 
0.021532778 0.9982111 0.055776563 
0.03932998 0.9985286 0.037335776 
0.06912545 0.9975051 0.01432586 
0.09765297 0.9952146 0.0034538964 
0.107143834 0.99424314 0.0008965789 
0.105276965 0.9943966 -0.009605257 
0.11171201 0.9932649 -0.030745463 
0.12853453 0.99047965 -0.0492859 
0.14119183 0.9883915 -0.056100406 
0.14072496 0.988529 -0.05483605 
0.13308021 0.989685 -0.053041313 
-0.06168637 0.997642 0.030090941 
-0.05961528 0.9978982 0.025399989 
-0.052339423 0.9985088 0.015518454 
-0.03971342 0.99921066 0.001037749 
-0.025834966 0.9995905 -0.012300957 
-0.016327148 0.9996892 -0.018836908 
-0.010849972 0.9997584 -0.019119574 
-0.0045556305 0.9998064 -0.019145321 
0.005114367 0.9997594 -0.02133061 
0.015870433 0.99961406 -0.022802405 
0.024031002 0.99954057 -0.018473368 
0.024722453 0.99966055 -0.00823356 
0.017604612 0.9998436 0.00168987 
0.0031120603 0.99998116 0.005297777 
-0.015452374 0.99987936 0.0016158124 
-0.028808938 0.9995834 -0.0017447601 
-0.028362958 0.9995948 0.002429094 
-0.014047901 0.9997384 0.018052803 
0.004138438 0.9991338 0.041406404 
0.022046138 0.9980285 0.058763295 
0.041806623 0.99721587 0.061747804 
0.061558142 0.9968875 0.04925376 
0.0842218 0.99615806 0.023995679 
0.11022683 0.99390525 -0.0016209759 
0.12425321 0.9920745 -0.018694578 
0.11746242 0.9924731 -0.03463888 
0.105519645 0.9927091 -0.058261555 
0.10728068 0.990607 -0.084785715 
0.120109625 0.9874382 -0.10266275 
0.12752172 0.9858686 -0.10863394 
0.12219066 0.98651886 -0.10885817 
0.11187644 0.9876798 -0.10941858 
-0.034427147 0.9993321 0.0122625185 
-0.031132562 0.9994457 0.011800067 
-0.025328241 0.99964046 0.008803631 
-0.017848233 0.9998403 0.0009501094 
-0.010458905 0.9999091 -0.008514167 
-0.005661182 0.99988973 -0.0137299765 
-0.0030622783 0.99990773 -0.013237285 
-0.00041754858 0.99993116 -0.011725817 
0.0030690047 0.999916 -0.012594846 
0.0067853215 0.99986905 -0.01469244 
0.008421384 0.9998791 -0.013070409 
0.004485593 0.9999652 -0.0070472895 
-0.004106427 0.99999094 -0.0011466589 
-0.015928913 0.99987316 0.0001293132 
-0.027401045 0.99962217 -0.0021735744 
-0.031120785 0.9995155 -0.0005884582 
-0.020547032 0.9997409 0.009798935 
0.0010083886 0.9995839 0.028829936 
0.02317371 0.99858433 0.047877762 
0.045339655 0.9974228 0.055608045 
0.069817536 0.9963187 0.04974624 
0.09361496 0.9951148 0.031349704 
0.116751924 0.9931494 0.0048300223 
0.13361733 0.9908396 -0.019583393 
0.13085872 0.9905756 -0.040447913 
0.10919998 0.99183697 -0.06584016 
0.088245936 0.99144506 -0.09617322 
0.08320305 0.98908573 -0.121600784 
0.088222325 0.9869261 -0.13488428 
0.088027574 0.98635906 -0.13909315 
0.07801254 0.9868598 -0.1414991 
0.06652883 0.98718494 -0.14505187 
-0.019372322 0.9997146 0.0139832245 
-0.016027238 0.9997634 0.0147049995 
-0.012610193 0.99982554 0.013783834 
-0.010424164 0.99991924 0.0072767884 
-0.008915592 0.9999554 -0.0031036574 
-0.0076894066 0.99992 -0.010047334 
-0.006484003 0.9999301 -0.009896178 
-0.00524632 0.9999612 -0.0070785563 
-0.004453254 0.99996614 -0.006921474 
-0.003943141 0.9999458 -0.009639415 
-0.0052836584 0.9999298 -0.010609839 
-0.010579295 0.999912 -0.008011597 
-0.01853156 0.9998197 -0.0041336594 
-0.026766809 0.9996394 -0.002189523 
-0.031712092 0.9994969 -0.00070293 
-0.028110743 0.99959 0.0054501737 
-0.011676405 0.9997686 0.018071132 
0.012914522 0.99935955 0.033372022 
0.03824579 0.9983692 0.042380646 
0.0647664 0.9970932 0.040131398 
0.09172243 0.9953964 0.027805204 
0.115645446 0.9932687 0.006598451 
0.13356543 0.9908765 -0.018002806 
0.13698493 0.98975056 -0.04036232 
0.11942175 0.99073553 -0.06466516 
0.08888209 0.99147373 -0.095288165 
0.062113605 0.99016595 -0.12535307 
0.04841508 0.9883189 -0.14450498 
0.042327836 0.98759925 -0.1511823 
0.033422947 0.98767304 -0.15292105 
0.020106131 0.9874397 -0.156712 
0.009524396 0.9866673 -0.1624718 
-0.01997941 0.9997487 0.010170269 
-0.016362274 0.99981165 0.01044241 
-0.013163722 0.99986833 0.009494685 
-0.012458903 0.99991727 0.0032008912 
-0.012973278 0.9998861 -0.0077235326 
-0.01268324 0.99980193 -0.015336117 
-0.010919737 0.99982995 -0.014863415 
-0.00895157 0.9999035 -0.01062642 
-0.008489611 0.9999264 -0.0086705545 
-0.009511601 0.99990594 -0.0098879915 
-0.012272085 0.99986845 -0.010604235 
-0.017602932 0.99981153 -0.008186503 
-0.02418555 0.9997008 -0.0036669085 
-0.02872838 0.9995871 0.0004284279 
-0.027799089 0.9996005 0.005112097 
-0.018275777 0.99974316 0.013403646 
0.0011677253 0.9996971 0.024583107 
0.02676405 0.9990964 0.033016615 
0.054477368 0.9979643 0.033158246 
0.08233699 0.9963009 0.02460008 
0.10691224 0.99423265 0.008445429 
0.12482414 0.99208426 -0.013703521 
0.13173974 0.99058396 -0.03725886 
0.12242346 0.9906094 -0.060873844 
0.097578526 0.9912869 -0.088481456 
0.06529179 0.99068 -0.11954176 
0.035222903 0.9887919 -0.14508645 
0.012674772 0.9875217 -0.15697281 
-0.00439672 0.98757523 -0.1570854 
-0.02042114 0.98770285 -0.15500371 
-0.034432847 0.98691684 -0.15751106 
-0.041981913 0.9856902 -0.16325596 
-0.0216519 0.99975985 -0.003404029 
-0.01701643 0.9998511 -0.002884136 
-0.011725867 0.99992824 -0.0024496012 
-0.009218378 0.99994 -0.005931046 
-0.0092302235 0.9998637 -0.013694071 
-0.008993939 0.9997793 -0.018986853 
-0.0071228803 0.9998232 -0.017404236 
-0.0055417405 0.99990463 -0.012649478 
-0.0070781903 0.9999259 -0.009907414 
-0.011374032 0.9998775 -0.010755311 
-0.01642407 0.99978757 -0.0124566695 
-0.021609683 0.999701 -0.011447204 
-0.025480157 0.9996505 -0.0070582307 
-0.025112497 0.99968433 -0.0008770096 
-0.018143503 0.9998079 0.0074191806 
-0.004306006 0.99981624 0.018680042 
0.015634954 0.9994522 0.029173005 
0.040787745 0.9986115 0.033341177 
0.0687117 0.9972113 0.029130515 
0.094638824 0.9953609 0.017325168 
0.11373905 0.9935101 -0.0009765968 
0.12253313 0.9921741 -0.024007825 
0.11857497 0.9917316 -0.049076658 
0.10148357 0.99196833 -0.07549916 
0.07473268 0.9916816 -0.10479914 
0.04375713 0.98993695 -0.134574 
0.012574504 0.9876384 -0.15624416 
-0.0162541 0.98648065 -0.1630698 
-0.041401614 0.9864883 -0.15851423 
-0.06148223 0.9863693 -0.15262915 
-0.07350146 0.9856999 -0.151636 
-0.076703325 0.9849537 -0.15486391 
-0.01913528 0.99964505 -0.0185375 
-0.013435712 0.9997603 -0.01728941 
-0.0057873875 0.99987304 -0.014849536 
-0.0008488048 0.999896 -0.014402205 
0.00045826123 0.99984765 -0.017451849 
0.0011989098 0.99980474 -0.01972783 
0.0030059249 0.99983245 -0.018057326 
0.0035004155 0.9998885 -0.014518299 
-0.0007442014 0.99991786 -0.0127976835 
-0.008520569 0.9998494 -0.015124383 
-0.015819106 0.99968845 -0.019308427 
-0.020408835 0.9995854 -0.020311672 
-0.021303004 0.9996576 -0.015199994 
-0.017233316 0.9998379 -0.0052254843 
-0.0074041025 0.9999362 0.008532893 
0.006677027 0.9996976 0.023666909 
0.025072394 0.99911207 0.033860065 
0.04952835 0.99814934 0.0352834 
0.07714111 0.99662054 0.028227763 
0.10063181 0.99482054 0.014334544 
0.11372308 0.9935006 -0.0048574735 
0.113853715 0.9930838 -0.028672239 
0.1015801 0.9932918 -0.05525248 
0.07917852 0.99340385 -0.082943596 
0.051442817 0.99239475 -0.11183251 
0.022255741 0.9900526 -0.13892694 
-0.00909087 0.987568 -0.15692952 
-0.04217334 0.98599833 -0.16133447 
-0.072099425 0.98510617 -0.15610151 
-0.092962205 0.9844889 -0.1487941 
-0.101447836 0.98442394 -0.14358974 
-0.100574605 0.984682 -0.14242885 
-0.0062311953 0.9995697 -0.028665671 
-0.00049269065 0.9996354 -0.026999079 
0.007529118 0.9997003 -0.023295855 
0.012840609 0.9997204 -0.01985825 
0.013892496 0.9997233 -0.018985659 
0.013691689 0.9997258 -0.01899539 
0.013999396 0.9997417 -0.017907139 
0.012485009 0.9997941 -0.015999956 
0.0059997444 0.9998581 -0.015741508 
-0.0037027618 0.9997956 -0.019879451 
-0.011635741 0.9995803 -0.02653016 
-0.014532695 0.99947804 -0.028854284 
-0.012590347 0.9996776 -0.02205069 
-0.0068766726 0.9999472 -0.007636637 
0.0016602953 0.9999366 0.011145087 
0.012311324 0.9995263 0.028208703 
0.02826215 0.99892914 0.036631927 
0.05206448 0.9980204 0.035279542 
0.07872767 0.99655384 0.026122335 
0.09890392 0.9950309 0.011467514 
0.10639023 0.99429476 -0.0076901168 
0.1008372 0.99440795 -0.031380173 
0.08414737 0.9948128 -0.05715541 
0.05907436 0.99480504 -0.082904086 
0.031401284 0.9936332 -0.10819882 
0.0036462017 0.9914718 -0.1302707 
-0.027974851 0.9891002 -0.14456241 
-0.0628362 0.98679304 -0.14930217 
-0.093187414 0.9847072 -0.14720002 
-0.11191199 0.983619 -0.14131339 
-0.117434666 0.9840837 -0.13337292 
-0.11481598 0.9850529 -0.12840594 
0.0160352 0.9996337 -0.021803016 
0.02025893 0.9995922 -0.020128159 
0.025365276 0.999543 -0.016447954 
0.026907017 0.999561 -0.012404799 
0.023631128 0.9996652 -0.010543433 
0.01887458 0.9997615 -0.010991233 
0.015064486 0.9998092 -0.012440266 
0.010928152 0.9998458 -0.013747648 
0.0043313783 0.9998575 -0.016321635 
-0.0033374734 0.9997374 -0.022675958 
-0.00793747 0.9995069 -0.030382318 
-0.0068696407 0.99948674 -0.03129033 
-0.0022124695 0.99978256 -0.020734817 
0.0028438314 0.9999937 -0.0021147325 
0.0073217046 0.99980557 0.018310707 
0.01417293 0.9993681 0.032597896 
0.029198827 0.99891245 0.03635099 
0.052897383 0.99810684 0.031379975 
0.07765349 0.99677086 0.020440517 
0.09385491 0.9955711 0.00544593 
0.09735733 0.9951582 -0.01348787 
0.089440204 0.99534583 -0.03587848 
0.0711176 0.99570894 -0.059212957 
0.04499427 0.9956046 -0.08214149 
0.017659433 0.9945205 -0.103040054 
-0.0096906815 0.9928653 -0.118846744 
-0.04159453 0.99084747 -0.12841846 
-0.07563618 0.9882112 -0.13310814 
-0.103138536 0.98554677 -0.13438736 
-0.11865398 0.9841721 -0.13163044 
-0.123062894 0.9845641 -0.124455 
-0.12122762 0.98549426 -0.11876501 
0.02816262 0.9996033 -0.00037654868 
0.030511312 0.9995344 -1.20592795e-05 
0.032211334 0.99948037 0.001160771 
0.029644085 0.999558 0.0023073403 
0.022199208 0.99975276 0.0013481998 
0.013714868 0.99990284 -0.0025181922 
0.007641669 0.9999388 -0.008010007 
0.0039114086 0.9999084 -0.012965871 
0.00057903805 0.9998461 -0.017535383 
-0.002850279 0.9997323 -0.022963408 
-0.0042859544 0.99964255 -0.026393618 
-0.0021115595 0.99977225 -0.02123855 
0.0015518379 0.9999793 -0.0062565994 
0.0042794696 0.9999122 0.012549142 
0.007251865 0.99957985 0.028066399 
0.015778933 0.9992664 0.034897715 
0.033668045 0.99888986 0.03294747 
0.057312086 0.99803513 0.025321066 
0.07825861 0.99683696 0.013841761 
0.0893129 0.9960031 -0.0010234464 
0.089380346 0.99580544 -0.019566838 
0.08030619 0.99593455 -0.04080914 
0.06202744 0.9960489 -0.06355389 
0.037288636 0.99560076 -0.085957274 
0.011670035 0.9946382 -0.10275623 
-0.015281929 0.9937095 -0.11094127 
-0.046427313 0.9924312 -0.11368797 
-0.07736074 0.99030656 -0.11536206 
-0.10056643 0.98798454 -0.11735868 
-0.113484584 0.9865645 -0.11752341 
-0.11891354 0.98637915 -0.113647595 
-0.11971447 0.98670334 -0.10993148 
0.01897392 0.9997166 0.014377497 
0.020983646 0.9997026 0.012432591 
0.022647677 0.9996963 0.009718698 
0.020662384 0.9997643 0.006668015 
0.014262152 0.99989545 0.0024111834 
0.006993136 0.9999692 -0.0035967403 
0.0026385265 0.99994504 -0.010153774 
0.0014240147 0.9998849 -0.015105522 
0.0005459987 0.99984056 -0.017848715 
-0.0022114671 0.9998222 -0.018728586 
-0.0055458085 0.99985886 -0.015863728 
-0.006715294 0.9999577 -0.006290783 
-0.0049827 0.9999541 0.008191809 
-0.0004003896 0.9997555 0.02211011 
0.008479314 0.99947447 0.031287502 
0.02368019 0.9991373 0.03411842 
0.04361301 0.9985443 0.031739213 
0.06322662 0.99767715 0.025352882 
0.07756325 0.9968771 0.014835418 
0.083703265 0.9964907 -6.5545515e-05 
0.08234315 0.9964224 -0.019025117 
0.074462205 0.9963699 -0.041262638 
0.059075583 0.9960492 -0.06630331 
0.037960563 0.99525565 -0.08958418 
0.01474786 0.9945666 -0.10305263 
-0.010618153 0.9943893 -0.10524884 
-0.03866907 0.99404085 -0.10191925 
-0.06522871 0.99296683 -0.09880384 
-0.084803365 0.99151874 -0.09848366 
-0.09676609 0.99034065 -0.09930658 
-0.10470765 0.9896283 -0.098347425 
-0.10887012 0.98927367 -0.0973916 
-0.0005760024 0.99990475 0.013795058 
0.0025489212 0.99994695 0.009987569 
0.006835805 0.9999663 0.004550608 
0.008620961 0.9999626 -0.0006386438 
0.006190263 0.9999675 -0.0051599704 
0.0019663332 0.999955 -0.009284883 
-0.000544292 0.99991703 -0.012869508 
-0.0011186886 0.99988496 -0.015129596 
-0.002820225 0.99987334 -0.015669998 
-0.0076782024 0.9998692 -0.014235294 
-0.01343005 0.9998619 -0.009798304 
-0.01550034 0.9998788 -0.0014586959 
-0.011059214 0.99989736 0.009110626 
0.00022497974 0.9998093 0.019526996 
0.016685247 0.99946094 0.028273452 
0.03511752 0.9988119 0.033786777 
0.051613327 0.9980581 0.034875706 
0.06479315 0.9974271 0.030676747 
0.075000815 0.99695987 0.021120578 
0.08113061 0.9966811 0.0066740164 
0.08214402 0.9965439 -0.012355033 
0.076891236 0.9963899 -0.035984244 
0.06397138 0.99595517 -0.06309589 
0.04535909 0.99517745 -0.086974524 
0.024959689 0.9947476 -0.09926898 
0.0032414892 0.9950353 -0.099470444 
-0.020790143 0.9954039 -0.09348194 
-0.04402195 0.9952266 -0.08709785 
-0.06126526 0.9946219 -0.08351007 
-0.07244379 0.99397916 -0.08220333 
-0.08159766 0.9933162 -0.08163911 
-0.08760286 0.9927398 -0.08242311 
-0.014099624 0.99988854 0.004926136 
-0.010260522 0.99994725 0.0005228073 
-0.004117169 0.9999762 -0.0055327644 
0.0007303528 0.99994415 -0.010545803 
0.0017154485 0.9999095 -0.013344991 
-0.0003755542 0.9998993 -0.014186319 
-0.0026553206 0.9998965 -0.014142781 
-0.0044065793 0.9998916 -0.014055101 
-0.007469113 0.9998775 -0.0137578165 
-0.012518861 0.9998478 -0.01215703 
-0.016620131 0.99982786 -0.008252278 
-0.015790753 0.9998739 -0.001713784 
-0.0079377135 0.9999461 0.006705761 
0.006173154 0.9998408 0.016743654 
0.022921873 0.9993749 0.026915139 
0.038048796 0.99869657 0.03402029 
0.04960826 0.99812627 0.035820145 
0.060708236 0.99763167 0.03233525 
0.07367971 0.9969755 0.024726605 
0.085134566 0.99629354 0.012305049 
0.09048163 0.9958798 -0.006039358 
0.086891755 0.99577206 -0.029796826 