# OOMMF OVF 2.0
# Segment count: 1
# Begin: Segment
# Begin: Header
# Title: m
# meshtype: rectangular
# meshunit: m
# xmin: 0
# ymin: 0
# zmin: 0
# xmax: 1.6e-07
# ymax: 1.6e-07
# zmax: 5e-09
# valuedim: 3
# valuelabels: m_x m_y m_z
# valueunits: 1 1 1
# Desc: Total simulation time:  8.554300533946822e-11  s
# xbase: 2.5e-09
# ybase: 2.5e-09
# zbase: 2.5e-09
# xnodes: 32
# ynodes: 32
# znodes: 1
# xstepsize: 5e-09
# ystepsize: 5e-09
# zstepsize: 5e-09
# End: Header
# Begin: Data Text
-0.1582097 0.6469167 0.7459682 
-0.25983965 0.7417149 0.6183384 
-0.33877537 0.84254676 0.41874388 
-0.3633181 0.9073827 0.21132101 
-0.33531326 0.94186395 0.021388533 
-0.26194167 0.9580136 -0.11660457 
-0.1720514 0.96818703 -0.18169242 
-0.10008846 0.9750094 -0.1983409 
-0.05965722 0.9762594 -0.20822755 
-0.035260163 0.9739965 -0.22380239 
-0.005360105 0.97363865 -0.22803289 
0.032083772 0.97832215 -0.20458828 
0.059193194 0.98669714 -0.15141016 
0.062083714 0.99448717 -0.08450429 
0.04926993 0.9983838 -0.02832335 
0.036545627 0.9993237 0.004065308 
0.025333269 0.999551 0.016004248 
0.013103833 0.99975634 0.017766863 
0.004204126 0.9998874 0.014406651 
0.0016644546 0.9999912 0.0038850964 
0.0039916434 0.9999726 -0.00624219 
0.015715998 0.99985737 -0.006181719 
0.045810305 0.9989484 -0.0018815318 
0.08290294 0.99654305 -0.0053946036 
0.09794884 0.9950476 -0.01692185 
0.07818467 0.9966125 -0.025508549 
0.039357193 0.9989016 -0.02542895 
0.0045207087 0.9997245 -0.023033602 
-0.011446125 0.9995269 -0.028547836 
-0.0044697546 0.99892753 -0.046087082 
0.011627231 0.9975599 -0.06884116 
0.016294073 0.99632007 -0.08414898 
-0.11914913 0.76406366 0.63404274 
-0.20068803 0.82390606 0.530003 
-0.27397963 0.8878038 0.36978334 
-0.30709326 0.931107 0.19680883 
-0.29235926 0.955759 0.032417256 
-0.23204099 0.9687582 -0.087547526 
-0.15308514 0.97808254 -0.14113697 
-0.08916765 0.98449606 -0.15105206 
-0.053586464 0.98625344 -0.15630957 
-0.03296298 0.9850377 -0.16915774 
-0.008449771 0.9844285 -0.17558214 
0.022779936 0.98664415 -0.16129021 
0.0461993 0.9912577 -0.12358759 
0.049647268 0.9959191 -0.075368024 
0.03984388 0.9985372 -0.036551483 
0.029837674 0.9994182 -0.01652192 
0.020252803 0.9997399 -0.010493719 
0.0083700325 0.9999228 -0.009192673 
-0.0018040242 0.9999515 -0.009682475 
-0.0064897793 0.9998584 -0.015529534 
-0.0062413816 0.9997621 -0.020897496 
0.0023201245 0.9998556 -0.016836163 
0.026090967 0.9996264 -0.008152863 
0.05534227 0.99844784 -0.006265298 
0.065700576 0.99775803 -0.012740129 
0.046565603 0.9987499 -0.018174449 
0.01185228 0.9997967 -0.01631411 
-0.01830077 0.999769 -0.011276868 
-0.031331748 0.9994393 -0.011812533 
-0.024198946 0.999448 -0.022760544 
-0.008205831 0.9991821 -0.03959597 
0.0009724202 0.998655 -0.05183949 
-0.065802574 0.8592543 0.5072988 
-0.12958898 0.891095 0.43492138 
-0.19925396 0.92626506 0.31989205 
-0.24293815 0.9524025 0.18414885 
-0.24274682 0.96892774 0.047465604 
-0.19641817 0.9791871 -0.051113695 
-0.13039576 0.98744947 -0.089109465 
-0.07750442 0.99298924 -0.08924922 
-0.049425133 0.9948033 -0.08901467 
-0.034213938 0.99434435 -0.1005423 
-0.015813425 0.993517 -0.112579346 
0.009258758 0.993626 -0.11234586 
0.029806431 0.99497634 -0.09557134 
0.035245024 0.99685085 -0.07103695 
0.030182473 0.9981134 -0.05346784 
0.024465278 0.9985415 -0.048129573 
0.01724316 0.9986722 -0.04854476 
0.005134845 0.99889934 -0.04662518 
-0.007965238 0.99908364 -0.042052776 
-0.016832553 0.99903727 -0.0405112 
-0.020642808 0.99904275 -0.03856916 
-0.017298302 0.9994443 -0.028495274 
-0.0023080409 0.9999016 -0.0138395475 
0.016675748 0.99984646 -0.0053868657 
0.020925457 0.99976116 -0.006308535 
0.0022331246 0.99996126 -0.008522458 
-0.027586954 0.9996094 -0.0044663856 
-0.051468886 0.9986648 0.004430831 
-0.05955325 0.99816865 0.010621659 
-0.050610274 0.9986874 0.007889422 
-0.034449007 0.9994045 -0.002017475 
-0.02380104 0.9996605 -0.0106039625 
-0.032631878 0.90702146 0.41981828 
-0.08303601 0.92599577 0.36828932 
-0.14602718 0.947765 0.2835802 
-0.19194715 0.9654975 0.17598543 
-0.19812207 0.9780693 0.06425143 
-0.16108488 0.98686177 -0.012470139 
-0.10743024 0.99362195 -0.034267515 
-0.067283764 0.99740577 -0.025585048 
-0.04852341 0.9985661 -0.0226131 
-0.039392117 0.9985592 -0.036439884 
-0.026292648 0.9980345 -0.05688434 
-0.0059095067 0.99742067 -0.07153346 
0.01281535 0.9971356 -0.074541636 
0.020833427 0.99724394 -0.07120856 
0.021281218 0.9972021 -0.0716612 
0.020966234 0.9967622 -0.07762436 
0.016941005 0.996499 -0.08187014 
0.0048488667 0.99694306 -0.07798226 
-0.011253887 0.9976556 -0.06750323 
-0.024740756 0.9980407 -0.05747084 
-0.03353063 0.9983202 -0.04725072 
-0.03639469 0.99884796 -0.031278327 
-0.030722164 0.9994542 -0.012143447 
-0.021812897 0.99976194 0.0005750175 
-0.02269571 0.99973816 0.002934421 
-0.039491706 0.9992175 0.002205534 
-0.06279721 0.9980003 0.0072127897 
-0.07862465 0.9967287 0.018708577 
-0.079826035 0.99635583 0.030048775 
-0.06727887 0.9971561 0.03396035 
-0.050112367 0.99829555 0.029912539 
-0.03880408 0.9989429 0.024645587 
-0.03946307 0.93240184 0.35926253 
-0.07678251 0.94476855 0.31861717 
-0.12501155 0.9599484 0.25074127 
-0.15947628 0.97356427 0.16352388 
-0.15939727 0.9843329 0.07537374 
-0.12481998 0.991942 0.021704607 
-0.0824916 0.9964687 0.015658474 
-0.056752842 0.9979328 0.030154733 
-0.049097344 0.99828404 0.031913217 
-0.046770923 0.99882233 0.012902905 
-0.038539674 0.99912727 -0.016106844 
-0.022219814 0.99884516 -0.04259898 
-0.005431277 0.9981788 -0.060080893 
0.0045398753 0.9974145 -0.07171966 
0.010256649 0.9964273 -0.08383007 
0.015856965 0.9953135 -0.09539172 
0.016121551 0.9948663 -0.09990578 
0.0058291354 0.9956217 -0.093292974 
-0.010874434 0.9969107 -0.07778813 
-0.026988205 0.99781686 -0.060276035 
-0.039889593 0.9982891 -0.042751897 
-0.04849183 0.99856436 -0.022755312 
-0.050972324 0.9986972 -0.0023878072 
-0.050032355 0.998689 0.010819375 
-0.053383302 0.9984836 0.013444149 
-0.06560067 0.997773 0.012074562 
-0.08038028 0.9966389 0.015814317 
-0.0871909 0.99583095 0.026806757 
-0.08126914 0.99590826 0.03952413 
-0.06507436 0.9967867 0.04670785 
-0.04705778 0.99781513 0.04637408 
-0.035689693 0.99841493 0.043520372 
-0.06147456 0.9517603 0.3006214 
-0.0867 0.9594515 0.26820907 
-0.117450155 0.9695889 0.21471627 
-0.13479826 0.97985774 0.1473376 
-0.124434285 0.98866624 0.08399565 
-0.092301175 0.9943363 0.05268698 
-0.063407436 0.9963226 0.0576271 
-0.053526532 0.99602574 0.07118843 
-0.05694909 0.99615824 0.066524886 
-0.06030841 0.9973566 0.040531613 
-0.05537221 0.9984542 0.0048306347 
-0.04191038 0.99870986 -0.028673042 
-0.026645275 0.9981811 -0.054078847 
-0.014859593 0.99719316 -0.073382586 
-0.004023788 0.995962 -0.089685954 
0.007729068 0.9949239 -0.100333944 
0.01340703 0.99478847 -0.10107531 
0.0075211097 0.9958487 -0.09071265 
-0.006080734 0.9974443 -0.07119005 
-0.021481166 0.99861664 -0.047993205 
-0.036373157 0.999018 -0.025299722 
-0.04919553 0.99878156 -0.0039100093 
-0.05773302 0.9982276 0.014446073 
-0.061781414 0.99777937 0.024889806 
-0.064512 0.9975931 0.025420707 
-0.06981269 0.9973243 0.021689873 
-0.07508695 0.99693847 0.0218121 
-0.073339835 0.9968907 0.028812662 
-0.061631765 0.9973356 0.039029155 
-0.04330173 0.997988 0.046313502 
-0.025728574 0.99852806 0.047746565 
-0.015323419 0.99880457 0.046418797 
-0.086638466 0.9670018 0.23958579 
-0.101623364 0.9712395 0.21532908 
-0.11596241 0.9774556 0.17644651 
-0.11637288 0.98477125 0.12916262 
-0.096670076 0.9912541 0.08983436 
-0.0689633 0.994628 0.077196 
-0.05468945 0.9947342 0.08667745 
-0.059619334 0.9938929 0.09285721 
-0.07192305 0.9943398 0.07820102 
-0.07924181 0.99582285 0.045360304 
-0.07685499 0.99702376 0.0060804375 
-0.066171505 0.99736875 -0.029615587 
-0.052299015 0.99698836 -0.057263333 
-0.0380939 0.99624556 -0.07774181 
-0.021390814 0.99559176 -0.091320656 
-0.0030085933 0.9954645 -0.095087074 
0.008925712 0.9960546 -0.08829314 
0.009502491 0.9973015 -0.072797514 
0.0019001449 0.99875855 -0.049778175 
-0.009892743 0.9996925 -0.022738708 
-0.024158783 0.9997047 0.0026398883 
-0.038480766 0.9990025 0.022653695 
-0.04977527 0.9981171 0.035845023 
-0.05526369 0.9976497 0.04050862 
-0.054670654 0.99781567 0.037083305 
-0.05193954 0.9981967 0.03009376 
-0.048286002 0.99850863 0.025476359 
-0.03993805 0.99884516 0.026711894 
-0.02504654 0.99915725 0.03251975 
-0.007103239 0.99923766 0.038387697 
0.007960257 0.99914604 0.040546335 
0.016036533 0.99906677 0.040105473 
-0.09753636 0.981277 0.16607925 
-0.10358042 0.98300344 0.15157664 
-0.10406928 0.98606336 0.12980245 
-0.092026256 0.99006146 0.10634664 
-0.069904 0.99321735 0.09291353 
-0.053490713 0.99389005 0.09654695 
-0.05626203 0.99285334 0.105246454 
-0.07331568 0.992343 0.099399254 
-0.090399966 0.99325496 0.07261121 
-0.09909876 0.9945224 0.033236444 
-0.09845714 0.995114 -0.0073641483 
-0.09042781 0.9950223 -0.04187559 
-0.07735927 0.99470735 -0.067624524 
-0.059744075 0.99464995 -0.084274955 
-0.03707621 0.9952396 -0.090130426 
-0.013261895 0.99642086 -0.08348489 
0.0036438422 0.9977217 -0.0673665 
0.010208095 0.9988826 -0.046145998 
0.008817589 0.9997552 -0.020294987 
0.0016225252 0.99996376 0.008361691 
-0.009809549 0.9993945 0.033385698 
-0.022192556 0.99854314 0.04918424 
-0.03204431 0.9979925 0.054626957 
-0.035205357 0.99806154 0.051321436 
-0.029550733 0.99864775 0.042773288 
-0.019588808 0.9992802 0.032485645 
-0.009430022 0.9996752 0.02367762 
0.0024944993 0.9997975 0.019971162 
0.017485024 0.99959344 0.022523558 
0.03227413 0.99908435 0.028087925 
0.042700525 0.9985886 0.031582903 
0.047269028 0.99836385 0.032175265 
-0.06971703 0.9923026 0.1023488 
-0.070976675 0.9926725 0.09779469 
-0.06701482 0.99332815 0.09385245 
-0.05657854 0.9940146 0.09345514 
-0.046829216 0.99386555 0.100192286 
-0.0497715 0.99263227 0.110471986 
-0.06744188 0.991534 0.11095938 
-0.08900084 0.9918318 0.09137083 
-0.104215175 0.99306965 0.054331325 
-0.11083197 0.99377626 0.011181482 
-0.110770956 0.99345237 -0.027970815 
-0.10492737 0.9927421 -0.058766164 
-0.09205033 0.99253017 -0.08006741 
-0.0711383 0.9933813 -0.09018233 
-0.044679206 0.99525374 -0.08645198 
-0.019131318 0.99742013 -0.06918835 
-0.00077768276 0.9990161 -0.04434219 
0.009077759 0.9998008 -0.017778799 
0.011897339 0.9998789 0.010037602 
0.008490523 0.9992367 0.03813153 
0.0009458668 0.9981827 0.060253877 
-0.006784982 0.9975256 0.06997667 
-0.011921992 0.99772274 0.06638725 
-0.010549368 0.9984635 0.054400865 
0.0001403317 0.99916255 0.040917426 
0.0154612595 0.99947655 0.028418113 
0.029753022 0.9994078 0.017284712 
0.043001045 0.9990138 0.011067599 
0.055932887 0.99835354 0.012722748 
0.06568929 0.99764955 0.019500641 
0.07012264 0.99722815 0.024876252 
0.070555165 0.9971552 0.026522044 
-0.032447252 0.9964728 0.077390596 
-0.033984642 0.99625826 0.07946478 
-0.034935713 0.9956624 0.08623179 
-0.036676932 0.99465203 0.09655119 
-0.04462203 0.99324614 0.10710274 
-0.062420033 0.99191993 0.110447556 
-0.08458651 0.99154454 0.09841001 
-0.10203731 0.99239194 0.06889632 
-0.111302964 0.99339676 0.027829079 
-0.11436829 0.9933358 -0.014282835 
-0.11349029 0.9923124 -0.04935726 
-0.10740706 0.9913803 -0.075026356 
-0.09251388 0.9915881 -0.09052231 
-0.06845245 0.99329597 -0.093153425 
-0.040800665 0.995902 -0.08071209 
-0.016583815 0.9983202 -0.055514377 
0.0008518794 0.9996978 -0.024567792 
0.011835099 0.99991244 0.0059293453 
0.016650504 0.9992643 0.034550108 
0.015280418 0.9980694 0.060200263 
0.010780106 0.9969159 0.07773348 
0.0076438985 0.9966627 0.08127172 
0.007302051 0.9975141 0.070088096 
0.012172869 0.998601 0.05145638 
0.024971392 0.9990818 0.03481328 
0.042075314 0.9988839 0.021463 
0.058063745 0.99826896 0.009366666 
0.07166649 0.9974268 0.001973159 
0.08240769 0.9965932 0.0033370962 
0.0874074 0.99611545 0.0106741525 
0.08636782 0.9961259 0.016552746 
0.08318782 0.99636686 0.018248247 
-0.015366746 0.99726367 0.07231284 
-0.019385464 0.996865 0.076710664 
-0.026963579 0.99594504 0.08582835 
-0.03867042 0.99470115 0.09525888 
-0.055376805 0.99354035 0.09905053 
-0.07529381 0.99293214 0.09174285 
-0.092900984 0.9931141 0.07137142 
-0.10428789 0.9937553 0.039682128 
-0.10955883 0.9939792 0.0015332518 
-0.11046592 0.9932518 -0.03533061 
-0.1074114 0.9921174 -0.06454446 
-0.097978175 0.9916344 -0.084033035 
-0.07925933 0.9925357 -0.09268675 
-0.053049758 0.9946883 -0.088210575 
-0.026236808 0.9971954 -0.07009229 
-0.004478895 0.99912584 -0.041564286 
0.0112711 0.9998983 -0.008743878 
0.021780163 0.99951094 0.02243888 
0.026340002 0.99845934 0.04883838 
0.024885364 0.9973028 0.06905107 
0.021616578 0.99652827 0.08039992 
0.021277674 0.996659 0.07885599 
0.02351506 0.99770975 0.06342292 
0.028570691 0.99871165 0.041938063 
0.039283603 0.9989185 0.02487381 
0.05481602 0.9984203 0.0123343235 
0.07103874 0.9974734 0.0007110261 
0.084720775 0.99638176 -0.0067689912 
0.093351826 0.99561363 -0.006251089 
0.0940003 0.99557173 -0.000994238 
0.088254936 0.99609566 0.0021548795 
0.08219772 0.9966143 0.0018606456 
-0.011580017 0.9974975 0.06974677 
-0.017741565 0.9970824 0.07424268 
-0.029038345 0.9962074 0.08202258 
-0.043591086 0.99525607 0.0869786 
-0.059272163 0.9947579 0.083327994 
-0.074222215 0.9948647 0.06881312 
-0.08672383 0.99520254 0.045286827 
-0.09595714 0.9952655 0.015453174 
-0.10111252 0.99472123 -0.017494151 
-0.101219006 0.9937048 -0.048016604 
-0.09500914 0.9929833 -0.07041023 
-0.080971286 0.9933322 -0.082065634 
-0.058842555 0.99486667 -0.08232876 
-0.032064494 0.9969461 -0.071207225 
-0.0068451944 0.9987146 -0.05022331 
0.012603568 0.99967366 -0.02222386 
0.026212204 0.999622 0.008305663 
0.034905843 0.99875855 0.035539098 
0.038088363 0.99777275 0.054762356 
0.035900418 0.9972256 0.06521023 
0.03289541 0.99713284 0.068146735 
0.03384277 0.99747777 0.062391907 
0.03714315 0.99826443 0.045701634 
0.040821496 0.99887663 0.024065698 
0.047583196 0.9988366 0.007839228 
0.05999772 0.9981944 -0.0028726186 
0.075378925 0.997081 -0.0121483635 
0.08786114 0.99597085 -0.017961739 
0.092988715 0.9955002 -0.018230697 
0.08851994 0.9959307 -0.016918989 
0.07809603 0.99676746 -0.01886148 
0.06952342 0.9973257 -0.022537045 
-0.016884595 0.99771017 0.065494426 
-0.023573585 0.9973668 0.06858568 
-0.03448366 0.99672467 0.073149204 
-0.045918133 0.9962671 0.07309933 
-0.055668585 0.99640554 0.063852355 
-0.064650714 0.99688053 0.045271866 
-0.07411836 0.99703234 0.02081048 
-0.08296208 0.99653125 -0.006547389 
-0.08796667 0.9955353 -0.034225404 
-0.08636333 0.99459034 -0.057720087 
-0.07673056 0.9944803 -0.07156467 
-0.059216112 0.9955607 -0.07315998 
-0.03565352 0.99733543 -0.063647 
-0.009671889 0.99888796 -0.046146747 
0.013734799 0.99962926 -0.023510246 
0.030728983 0.9995249 0.0024290073 
0.04132963 0.99874455 0.028308379 
0.047242705 0.9977271 0.04804976 
0.04862059 0.9972278 0.05632876 
0.045435384 0.9974945 0.05422487 
0.04191205 0.9979864 0.047608793 
0.04293163 0.99835193 0.038081627 
0.046629637 0.99868923 0.021108504 
0.049340133 0.99878174 -0.0007529348 
0.05316748 0.9984323 -0.017498638 
0.06319988 0.9976352 -0.027017772 
0.077352524 0.99647224 -0.032553297 
0.08688234 0.9956262 -0.03434963 
0.08622342 0.9957092 -0.03359876 
0.07522618 0.9965395 -0.03535795 
0.059890628 0.99732417 -0.041925058 
0.049045492 0.9976117 -0.04863614 
-0.02789563 0.99750483 0.06485393 
-0.033241265 0.997332 0.064993 
-0.040696315 0.99709356 0.064406514 
-0.04673837 0.9971889 0.05856538 
-0.050838336 0.9977125 0.044558 
-0.056045175 0.9981536 0.023416847 
-0.06388398 0.9979568 -0.0010010559 
-0.07138919 0.9971174 -0.025702452 
-0.074104 0.9960822 -0.048258796 
-0.06941803 0.99549526 -0.06457892 
-0.056841906 0.9959542 -0.06960116 
-0.03787853 0.99738145 -0.06160877 
-0.015071476 0.99892247 -0.04389553 
0.0088049015 0.99972326 -0.021816827 
0.029831992 0.9995539 0.001477099 
0.044131454 0.998719 0.024756102 
0.051884092 0.99764115 0.044945884 
0.055694193 0.9968692 0.056125574 
0.056159567 0.9969802 0.053634237 
0.05239808 0.99779874 0.04064811 
0.0476776 0.9985073 0.026648812 
0.047398318 0.99876153 0.0151267955 
0.051006142 0.9986974 -0.0014409351 
0.05393185 0.9982385 -0.024724651 
0.05644172 0.99741375 -0.0445 
0.064410195 0.99644136 -0.0543697 
0.07599479 0.99554193 -0.055867072 
0.0807738 0.9953421 -0.052628357 
0.073720455 0.99604326 -0.04963018 
0.05761414 0.99694145 -0.05280658 
0.03983106 0.9972682 -0.062206343 
0.028467143 0.99709 -0.07071948 
-0.04523119 0.99689174 0.06450584 
-0.04754699 0.9969846 0.061326515 
-0.04957617 0.99725443 0.05500822 
-0.049996205 0.9978182 0.04312034 
-0.05016289 0.99842983 0.024934778 
-0.053278532 0.99857616 0.0026697826 
-0.05937781 0.9980328 -0.020122275 
-0.063956484 0.9971081 -0.04105062 
-0.06270932 0.996358 -0.057778575 
-0.05431179 0.9963114 -0.066437505 
-0.039853018 0.9972158 -0.06302727 
-0.021846049 0.99863136 -0.047521982 
-0.0022509915 0.99968725 -0.02490555 
0.018029023 0.9998367 -0.0013102428 
0.03642144 0.99912566 0.020531371 
0.049184117 0.9980061 0.03955771 
0.05626351 0.99700105 0.053134583 
0.060282793 0.99656874 0.056717034 
0.061722036 0.99698806 0.046960905 
0.058575545 0.9979007 0.027625069 
0.05271097 0.9985644 0.009519555 
0.050022073 0.9987449 -0.002547045 
0.052692678 0.9984462 -0.018130101 
0.05636717 0.99749404 -0.042760238 
0.05826422 0.9961068 -0.06615549 
0.062976606 0.99503547 -0.07706149 
0.06936949 0.99474907 -0.07524833 
0.06800721 0.9953642 -0.068009466 
0.055893216 0.9964254 -0.063344546 
0.03824628 0.9969969 -0.06733875 
0.022011772 0.99668133 -0.07836977 
0.012534897 0.9960576 -0.0878188 
-0.05332137 0.9973371 0.04975668 
-0.05219396 0.99760914 0.045295972 
-0.049194936 0.99812615 0.03639033 
-0.045676984 0.9987107 0.022150813 
-0.043963198 0.9990251 0.0040329914 
-0.046143975 0.9988235 -0.014910405 
-0.050756354 0.998185 -0.032413192 
-0.05283293 0.9974867 -0.047211282 
-0.048757695 0.9971919 -0.056842815 
-0.038618427 0.9975895 -0.05765407 
-0.025130963 0.9985673 -0.047244463 
-0.011064995 0.9995615 -0.027468009 
0.0033418282 0.99998635 -0.004016711 
0.01930768 0.99966097 0.017471472 
0.03529457 0.9987708 0.03480473 
0.047488865 0.9977661 0.046985053 
0.055108443 0.997086 0.052752648 
0.06038758 0.99692166 0.050007127 
0.06385831 0.99730253 0.03619086 
0.062506065 0.9979502 0.013730867 
0.056271985 0.9983925 -0.006771298 
0.051291484 0.9985067 -0.018806562 
0.053085215 0.998076 -0.03203373 
0.05801504 0.996799 -0.055009723 
0.05940598 0.9951305 -0.07865269 
0.05899171 0.9943136 -0.08865909 
0.057258498 0.9948363 -0.08379923 
0.048647903 0.99605316 -0.07423945 
0.033188798 0.9970227 -0.06960136 
0.017165773 0.99702126 -0.07519319 
0.005395393 0.99610573 -0.08800262 
-0.00060019956 0.99514145 -0.09845384 
-0.045809727 0.9986782 0.02331318 
-0.043144308 0.998874 0.019733185 
-0.038869 0.99917287 0.011948877 
-0.03545107 0.9993714 -2.6793989e-05 
-0.034436323 0.9993162 -0.013466175 
-0.036359373 0.9990105 -0.025614174 
-0.03939277 0.9985746 -0.03601407 
-0.03942327 0.9982437 -0.04421874 
-0.0338185 0.99830556 -0.047353525 
-0.023768628 0.998834 -0.04201978 
-0.012898542 0.99954534 -0.027256515 
-0.0032090486 0.9999766 -0.006045511 
0.0068835947 0.9998489 0.015965076 
0.01980627 0.9992387 0.033609997 
0.034312237 0.9984141 0.044633944 
0.046378575 0.9977511 0.048391387 
0.0544564 0.99746126 0.04588728 
0.0605229 0.9974595 0.037572894 
0.06540969 0.9976339 0.021175954 
0.06547252 0.9978499 -0.0029954498 
0.058798082 0.99794465 -0.025484245 
0.051102735 0.9979748 -0.03788014 
0.050883073 0.99757946 -0.04739403 
0.056152422 0.99636126 -0.06411943 
0.056929834 0.9949349 -0.08284668 
0.05080439 0.99466085 -0.08982674 
0.039959446 0.99575037 -0.08297341 
0.02435201 0.99704397 -0.07287297 
0.0067869755 0.9975959 -0.06896706 
-0.0066212793 0.9971222 -0.07552117 
-0.013457021 0.9959353 -0.089061216 
-0.015878499 0.9948591 -0.100016855 
-0.03039156 0.99952126 -0.0058031725 
-0.028176256 0.9995684 -0.008312831 
-0.025729511 0.9995701 -0.014058992 
-0.024899874 0.9994467 -0.022055512 
-0.025337389 0.9992506 -0.029264836 
-0.026426436 0.9990722 -0.03400701 
-0.027347585 0.99893224 -0.037236903 
-0.025788192 0.9989111 -0.038880814 
-0.02008224 0.9991455 -0.036126718 
-0.01170812 0.9995879 -0.026212016 
-0.003920371 0.99995184 -0.0089953635 
0.00266626 0.99991876 0.01246817 
0.010683127 0.99940735 0.032722984 
0.022727031 0.9986623 0.046444744 
0.037394594 0.9979994 0.05097892 
0.050368987 0.9976479 0.046495117 
0.059210252 0.9975858 0.036288273 
0.06542957 0.9975975 0.022762392 
0.07019481 0.997525 0.0040767854 
0.0702755 0.99730176 -0.02122937 
0.062602974 0.9969935 -0.04566014 
0.051428784 0.9969071 -0.05942559 
0.046968278 0.99677706 -0.06503487 
0.049977813 0.9961177 -0.072469 
0.049270056 0.9953341 -0.08296152 
0.038225856 0.9955108 -0.086586155 
0.019772349 0.99663013 -0.079608545 
-0.0011494745 0.99753666 -0.07013868 
-0.019915562 0.99760455 -0.06624749 
-0.0310478 0.9969454 -0.07166613 
-0.033867054 0.9959171 -0.083679944 
-0.03341563 0.9950226 -0.09387974 
-0.011940664 0.99968433 -0.022108786 
-0.010995959 0.999645 -0.024267409 
-0.011269934 0.9995245 -0.028704224 
-0.0133208735 0.999353 -0.033410843 
-0.015145201 0.9992507 -0.03561865 
-0.015870418 0.9992699 -0.034753297 
-0.016265618 0.99933946 -0.032498207 
-0.015555035 0.99945563 -0.02909692 
-0.01224686 0.9996715 -0.022517834 
-0.00698736 0.99991745 -0.0107910335 
-0.0019097402 0.9999785 0.0062775356 
0.0033085537 0.99964833 0.026311697 
0.011243111 0.99896574 0.04405828 
0.023928102 0.998262 0.053855717 
0.039674114 0.9978117 0.052895892 
0.054153834 0.99764496 0.042095568 
0.064413875 0.9975839 0.026022598 
0.07134323 0.99741703 0.008336975 
0.07637618 0.9970113 -0.011628592 
0.07708328 0.9963613 -0.03636555 
0.0692989 0.9957134 -0.061258525 
0.054792114 0.99559903 -0.07602913 
0.044270363 0.9959687 -0.0780159 
0.042091012 0.9961855 -0.076439425 
0.03844655 0.9961001 -0.07941412 
0.02410804 0.9963629 -0.081730135 
0.0015708854 0.997011 -0.07724449 
-0.02143305 0.99733716 -0.06970829 
-0.039561044 0.9970957 -0.065078214 
-0.048237793 0.9965709 -0.06722864 
-0.048017487 0.99600387 -0.07530435 
-0.045600817 0.99549437 -0.08313583 
0.0013533891 0.9997362 -0.022928622 
0.0012055814 0.99967897 -0.025308 
-0.0007401651 0.99956894 -0.02935174 
-0.004041466 0.9994653 -0.032447323 
-0.0063122036 0.9994548 -0.032409504 
-0.0072716735 0.99954236 -0.029363744 
-0.008748103 0.9996516 -0.024903622 
-0.010430583 0.9997615 -0.019186134 
-0.010201359 0.99988854 -0.010907431 
-0.0075391205 0.9999709 0.0011978397 
-0.0037913052 0.9998431 0.017305838 
0.0011510465 0.99937373 0.035367683 
0.009040662 0.9986967 0.050232664 
0.021336425 0.9981777 0.056444395 
0.036733653 0.9979904 0.051630262 
0.05192282 0.9979611 0.03711749 
0.0640476 0.9977936 0.01748532 
0.07285028 0.99733925 -0.0027064933 
0.07909293 0.9966172 -0.022329472 
0.08118837 0.9957196 -0.04416965 
0.074771166 0.9949594 -0.06682192 
0.059294555 0.99492073 -0.08134451 
0.043869536 0.9957058 -0.08152032 
0.03519768 0.99660355 -0.07444774 
0.027417678 0.9970219 -0.072081424 
0.011758302 0.997189 -0.073999345 
-0.010535451 0.9972603 -0.073219396 
-0.03175373 0.9971081 -0.06904486 
-0.04702607 0.9967835 -0.06489471 
-0.053161778 0.9965349 -0.063970305 
-0.05149164 0.99643177 -0.06687543 
-0.04840952 0.9963016 -0.07099181 
0.010901997 0.9997696 -0.018490152 
0.010114947 0.9997272 -0.021053838 
0.007875054 0.99965996 -0.024859885 
0.005071356 0.9996149 -0.027283235 
0.0031705915 0.999635 -0.026831405 
0.0015571194 0.9997133 -0.023896748 
-0.0016686545 0.99981177 -0.019329844 
-0.006018031 0.99990195 -0.012646146 
-0.008718125 0.9999576 -0.0029821987 
-0.008294408 0.999917 0.009870469 
-0.005641792 0.99966955 0.025078733 
-0.0014155516 0.9991817 0.040422544 
0.0052814144 0.99865717 0.05153785 
0.015735889 0.99839205 0.05446005 
0.029699072 0.9984178 0.04774947 
0.04539848 0.99844056 0.03248789 
0.059691083 0.99814385 0.012075528 
0.07009147 0.99750394 -0.008557536 
0.07621283 0.99674064 -0.026452763 
0.07854614 0.99594456 -0.04387472 
0.07456303 0.9952626 -0.062391035 
0.06177405 0.99515986 -0.07642553 
0.04468838 0.9959667 -0.07780445 
0.030005394 0.9971604 -0.06907139 
0.017931394 0.9979009 -0.06222762 
0.0028422647 0.99804676 -0.06240748 
-0.016078984 0.99775684 -0.06498371 
-0.033291634 0.997289 -0.065624066 
-0.04504443 0.99690765 -0.06439148 
-0.049568176 0.99684024 -0.06207006 
-0.048293963 0.9970384 -0.059851 
-0.045788582 0.9971616 -0.059766743 
0.017131131 0.9997779 -0.012278567 
0.015654515 0.99977076 -0.014608515 
0.013322045 0.9997503 -0.01794123 
0.011250039 0.99973327 -0.02017042 
0.009567952 0.9997456 -0.020426517 
0.0070365136 0.9997931 -0.019087002 
0.0022619804 0.9998682 -0.016081 
-0.00410665 0.99994147 -0.010013551 
-0.009018161 0.99995935 -0.00021116619 
-0.010151413 0.99987394 0.012213761 
-0.007974598 0.99965554 0.02500374 
-0.00402872 0.9993375 0.036170743 
0.0017567326 0.9990586 0.043345433 
0.010799884 0.9989382 0.04478644 
0.02402128 0.9989273 0.039589886 
0.0406211 0.99879426 0.027568625 
0.056286223 0.9983634 0.010127474 
0.06627489 0.9977682 -0.008132495 
0.069889374 0.99729246 -0.022877453 
0.07051622 0.99687845 -0.035510335 
0.06843607 0.9964091 -0.04985517 
0.05962822 0.9961581 -0.064137444 
0.043264743 0.9966557 -0.06932289 
0.024992576 0.9977369 -0.06242153 
0.010800217 0.99854064 -0.052915066 
-0.001365229 0.9987189 -0.05058495 
-0.01477335 0.99838823 -0.054798 
-0.0274626 0.99786294 -0.059291493 
-0.03737575 0.9974315 -0.061101124 
-0.043144666 0.99734885 -0.058600053 
-0.044705473 0.9975844 -0.053168695 
-0.044039212 0.99776536 -0.050248813 
0.017399024 0.9998253 -0.0068260306 
0.015145601 0.99984396 -0.009092326 
0.012632722 0.9998406 -0.012620578 
0.011176983 0.99981314 -0.015770257 
0.009757831 0.9997948 -0.01775559 
0.006800499 0.99980396 -0.018597528 
0.0014507519 0.99984515 -0.017542131 
-0.0056325076 0.9999042 -0.012643758 
-0.0113720745 0.9999295 -0.003424361 
-0.01270455 0.9998891 0.0077745975 
-0.009816519 0.9997967 0.017615661 
-0.0052292333 0.999678 0.024830688 
0.00031441206 0.9995684 0.029375086 
0.00855522 0.999478 0.03115357 
0.021469984 0.9993458 0.029105894 
0.03850648 0.9990245 0.02161694 
0.05443008 0.9984811 0.008538798 
0.0634059 0.9979699 -0.005976068 
0.064613976 0.99776304 -0.017145753 
0.06266143 0.99771184 -0.02539057 
0.059953813 0.9975814 -0.035168964 
0.05306706 0.99744266 -0.047875546 
0.03825694 0.9976791 -0.056327634 
0.01923203 0.9983409 -0.054273095 
0.004569764 0.9989055 -0.04655202 
-0.004330631 0.9990483 -0.043403685 
-0.011677907 0.99882627 -0.047007415 
-0.019516813 0.9984742 -0.0516575 
-0.028174298 0.99815 -0.053878184 
-0.036808185 0.9979929 -0.051530864 
-0.043380186 0.99801326 -0.04569152 
-0.04618379 0.9980432 -0.042153127 
0.015456641 0.9998776 -0.002474066 
0.012716807 0.9999065 -0.0050420845 
0.01010162 0.99990374 -0.009522372 
0.008961939 0.99985534 -0.014460479 
0.007534547 0.9997992 -0.01857415 
0.004116508 0.9997642 -0.021321306 
-0.0016492858 0.9997634 -0.021687474 
-0.009062104 0.9998022 -0.017703215 
-0.015080314 0.9998454 -0.00904958 
-0.01617067 0.9998685 0.0012155472 
-0.012359127 0.9998811 0.009231554 
-0.006915935 0.9998738 0.014307895 
-0.0011509138 0.99984 0.01785226 
0.0068678525 0.99976796 0.020419275 
0.01948495 0.9995979 0.020604154 
0.036000445 0.9992209 0.016176382 
0.051513087 0.9986508 0.0065680905 
0.060464516 0.9981595 -0.004658887 
0.061287418 0.9980321 -0.013256518 
0.057521373 0.9981796 -0.018129416 
0.053005926 0.99834126 -0.02247585 
0.047047097 0.9984331 -0.030297494 
0.034788862 0.9986202 -0.039339542 
0.016485795 0.99892676 -0.0432865 
0.00039696178 0.9991562 -0.041069906 
-0.007962492 0.99919605 -0.03929142 
-0.010852758 0.9990843 -0.041387726 
-0.013234518 0.9989363 -0.044173185 
-0.018629128 0.9987941 -0.045426138 
-0.028538076 0.9986471 -0.04346992 
-0.04010816 0.99844664 -0.038676284 
-0.047125503 0.998255 -0.03558443 
0.014691884 0.99988216 0.0044524116 
0.01168814 0.99993014 0.0017938658 
0.008617924 0.99995714 -0.003385 
0.0067606843 0.99992657 -0.0100555485 
0.004271476 0.9998546 -0.016509129 
-0.00033394832 0.99976665 -0.021603037 
-0.0069876295 0.9996851 -0.024101593 
-0.014897482 0.9996464 -0.02202548 
-0.02119509 0.99966556 -0.014815845 
-0.022262702 0.9997375 -0.005414381 
-0.017831694 0.99983823 0.0023428649 
-0.0111660175 0.9999071 0.007824295 
-0.0039311247 0.99991316 0.012582273 
0.0050825533 0.9998447 0.016880825 
0.017319411 0.9996706 0.018940417 
0.031931028 0.99935 0.01673209 
0.04569906 0.9989064 0.009889952 
0.054693926 0.99850285 0.00086087757 
0.0567673 0.99836236 -0.007085671 
0.053623553 0.9984984 -0.011202889 
0.04951161 0.99869704 -0.012360729 
0.045894425 0.9988261 -0.015495815 
0.03794983 0.9990096 -0.023230212 
0.022733605 0.9992476 -0.031424005 
0.005664513 0.9993778 -0.034815256 
-0.0052936873 0.9993695 -0.035107095 
-0.008364404 0.99931484 -0.03605336 
-0.008115473 0.99924564 -0.037977356 
-0.010042547 0.99915034 -0.039973628 
-0.018096855 0.99903405 -0.040044453 
-0.030235235 0.9988531 -0.037127834 
-0.038602237 0.9986615 -0.03442476 
0.016681736 0.9997887 0.012014784 
0.013353629 0.9998593 0.010155673 
0.009124278 0.9999415 0.005800791 
0.005422939 0.99998486 -0.0010494876 
0.0011134974 0.9999595 -0.008926704 
-0.004749166 0.99985594 -0.016298285 
-0.012004063 0.99969625 -0.021525186 
-0.020079998 0.9995492 -0.022322169 
-0.026713414 0.9994888 -0.017567795 
-0.028564012 0.9995464 -0.00955259 
-0.02476381 0.9996918 -0.0017403634 
-0.0175326 0.99983466 0.004845803 
-0.008520274 0.9999017 0.011137875 
0.0019213572 0.99985576 0.016874844 
0.0134000145 0.99970144 0.020436235 
0.025046403 0.99947125 0.020737372 
0.036178026 0.9991873 0.017774586 
0.045230746 0.9989009 0.012304548 
0.049793184 0.9987422 0.0058944924 
0.04941236 0.998777 0.0017567695 
0.04727629 0.99888134 0.0010173251 
0.046053376 0.998939 -0.00037760218 
0.04319465 0.9990372 -0.007667842 
0.03447948 0.9992215 -0.01917301 
0.020532144 0.9994086 -0.027585668 