# OOMMF OVF 2.0
# Segment count: 1
# Begin: Segment
# Begin: Header
# Title: m
# meshtype: rectangular
# meshunit: m
# xmin: 0
# ymin: 0
# zmin: 0
# xmax: 1.6e-07
# ymax: 1.6e-07
# zmax: 5e-09
# valuedim: 3
# valuelabels: m_x m_y m_z
# valueunits: 1 1 1
# Desc: Total simulation time:  8.151044599231201e-11  s
# xbase: 2.5e-09
# ybase: 2.5e-09
# zbase: 2.5e-09
# xnodes: 32
# ynodes: 32
# znodes: 1
# xstepsize: 5e-09
# ystepsize: 5e-09
# zstepsize: 5e-09
# End: Header
# Begin: Data Text
-0.84223545 0.52566916 0.11963056 
-0.7262288 0.6874381 -0.0045532486 
-0.50780493 0.8462341 -0.16131398 
-0.2590895 0.9338531 -0.24655879 
-0.05347512 0.97013134 -0.23661277 
0.078010485 0.9804481 -0.18065417 
0.14632423 0.9802138 -0.13330449 
0.184299 0.9772357 -0.105092466 
0.21725176 0.9731276 -0.076317765 
0.24640144 0.9684518 -0.03724986 
0.2503985 0.9681368 0.003459527 
0.21318518 0.9765465 0.030148316 
0.15086092 0.98795885 0.03432562 
0.09093799 0.9956269 0.021383686 
0.043333534 0.99905485 0.0034051365 
0.007891659 0.99991816 -0.010076896 
-0.013402983 0.99977666 -0.016337713 
-0.018077368 0.99962354 -0.020639578 
-0.011765405 0.9996289 -0.024570236 
-0.0039771018 0.9997349 -0.02268124 
0.005232084 0.999937 -0.009937368 
0.011307088 0.99987096 0.011415262 
0.0018732871 0.9993263 0.036652047 
-0.018515483 0.99774367 0.064535744 
-0.026918547 0.9959935 0.08527819 
-0.013619805 0.99670565 0.079952404 
0.007236959 0.99895865 0.04504672 
0.021088017 0.99975634 0.00653581 
0.0261874 0.9996378 -0.0062109283 
0.026181515 0.99960554 0.010162467 
0.023153229 0.998904 0.04067984 
0.015831163 0.99774706 0.06519435 
-0.7436454 0.6580817 0.11798291 
-0.6443657 0.7646787 0.0077070533 
-0.45677426 0.87969464 -0.13226719 
-0.2392169 0.9481648 -0.2091859 
-0.05864859 0.977945 -0.20045929 
0.053930435 0.98689395 -0.15209174 
0.10872681 0.98755395 -0.11364766 
0.13655148 0.986234 -0.09325446 
0.16199078 0.98413986 -0.072302945 
0.18804441 0.98129827 -0.041146673 
0.19615267 0.98055005 -0.0067599886 
0.17161138 0.9850174 0.017035838 
0.12750754 0.9915747 0.022837535 
0.08593347 0.9961768 0.01572871 
0.053399447 0.99855703 0.0056856354 
0.028567176 0.9995912 -0.0012354596 
0.013435882 0.99989784 -0.0048753126 
0.010764866 0.9998921 -0.009992744 
0.0153824715 0.9997466 -0.016434629 
0.018543918 0.999667 -0.017948886 
0.020713132 0.99973655 -0.009895865 
0.019827144 0.9997911 0.004961849 
0.007110425 0.9997338 0.021949925 
-0.013230005 0.9990835 0.040707916 
-0.022323111 0.9982591 0.0545927 
-0.012462807 0.99874836 0.04844176 
0.0037589867 0.99982727 0.018200438 
0.013353839 0.99978936 -0.015583993 
0.015069778 0.99949414 -0.028009035 
0.013199274 0.99979746 -0.015196335 
0.011064769 0.99988073 0.010783595 
0.009159274 0.9994375 0.03226185 
-0.6312966 0.76882184 0.10187035 
-0.55555534 0.8314058 0.01108004 
-0.40372497 0.9086827 -0.10631116 
-0.22114326 0.9602878 -0.17012636 
-0.07020845 0.9845351 -0.16050419 
0.01868964 0.9925423 -0.12045991 
0.056201495 0.99407524 -0.093037285 
0.07170302 0.9940017 -0.08257947 
0.089154184 0.99348044 -0.07105153 
0.11336469 0.99236315 -0.048619635 
0.12856866 0.991489 -0.020488052 
0.12102698 0.99264866 0.0010667793 
0.099997714 0.994942 0.009539765 
0.08147975 0.9966268 0.009806948 
0.06794338 0.99764484 0.00941172 
0.05649938 0.99835134 0.010123658 
0.049197916 0.9987482 0.00904466 
0.04917408 0.9987882 0.0020288255 
0.051718265 0.9986236 -0.008728126 
0.048815902 0.9986826 -0.015816092 
0.04157538 0.9990277 -0.014664757 
0.031219998 0.99947727 -0.008397465 
0.013591706 0.99990666 -0.0014510603 
-0.007387213 0.9999492 0.006857604 
-0.017596649 0.9997572 0.013265666 
-0.011821666 0.9999076 0.0067199934 
-0.0011315795 0.9998419 -0.017750492 
0.0028015692 0.9989351 -0.04605323 
-0.0010093896 0.99831325 -0.058048762 
-0.0071834377 0.99878293 -0.048795305 
-0.011055298 0.9995706 -0.027137967 
-0.011962855 0.9998908 -0.008681337 
-0.53105515 0.84521437 0.05994343 
-0.47343954 0.8807977 -0.007110426 
-0.3512947 0.9315724 -0.09362199 
-0.20298012 0.9697166 -0.13582666 
-0.08501876 0.98896694 -0.121310934 
-0.02276763 0.9957129 -0.089652404 
-0.0026728867 0.9971982 -0.07475763 
0.003193242 0.99715906 -0.07525722 
0.016265394 0.9972001 -0.072989136 
0.041199032 0.99745613 -0.058172554 
0.06454433 0.99730194 -0.034972947 
0.073866636 0.9971584 -0.014796453 
0.07490894 0.9971845 -0.0034272345 
0.07779464 0.99696255 0.0037152013 
0.08119151 0.9966308 0.011627854 
0.08111034 0.9965344 0.018451197 
0.079796664 0.9966229 0.019372698 
0.08069629 0.99667823 0.010985696 
0.08002025 0.99678683 -0.0035717357 
0.07103608 0.99733776 -0.016470311 
0.055398814 0.99820346 -0.022825932 
0.03706716 0.9989931 -0.025274264 
0.015955508 0.9995015 -0.027245373 
-0.004535469 0.99962395 -0.027046625 
-0.014921504 0.99956036 -0.02562231 
-0.012333816 0.9994486 -0.030830653 
-0.0063082105 0.9988119 -0.048321713 
-0.0074734036 0.9975373 -0.06973938 
-0.016951941 0.9966944 -0.07945414 
-0.028320014 0.9970198 -0.07176039 
-0.035528034 0.9979689 -0.05287523 
-0.037468098 0.99862343 -0.03670684 
-0.44583628 0.8950648 0.009439103 
-0.4009643 0.91544414 -0.03449385 
-0.30387047 0.9484796 -0.08971824 
-0.18928951 0.9758407 -0.10910813 
-0.10521399 0.9904017 -0.089636214 
-0.06811516 0.9954498 -0.0666341 
-0.060721856 0.99611896 -0.06371783 
-0.058048394 0.9955901 -0.073694296 
-0.0436985 0.99594945 -0.0785826 
-0.015291924 0.9974675 -0.06946106 
0.015741387 0.99860656 -0.050370768 
0.039230976 0.9987229 -0.03183852 
0.058193605 0.9981363 -0.018372592 
0.07711713 0.9970057 -0.005708768 
0.0915267 0.99576646 0.008489926 
0.09749145 0.995037 0.019924656 
0.097688764 0.99493897 0.023525571 
0.0956183 0.9952826 0.016427938 
0.08915313 0.9960176 0.0009004911 
0.073853396 0.99714 -0.016047979 
0.051989816 0.9982285 -0.028930312 
0.029249363 0.9988179 -0.038823385 
0.008175021 0.9988464 -0.047320403 
-0.009174959 0.9986051 -0.051997095 
-0.017783226 0.99845237 -0.05269377 
-0.01658136 0.99836266 -0.05474546 
-0.013257314 0.997882 -0.06368448 
-0.017273884 0.9969756 -0.07577273 
-0.030143056 0.99633765 -0.08001694 
-0.044949047 0.99646205 -0.0710139 
-0.054654203 0.9970878 -0.0531884 
-0.057665158 0.9975906 -0.038570855 
-0.35989165 0.9315692 -0.05154365 
-0.32425448 0.94309914 -0.073641814 
-0.2502784 0.96335685 -0.09645963 
-0.17130378 0.9809669 -0.091427386 
-0.12297255 0.99020433 -0.0661302 
-0.10889495 0.9927725 -0.050444417 
-0.1087974 0.99243534 -0.056879655 
-0.1031635 0.99195486 -0.07336869 
-0.082591705 0.9931046 -0.083197966 
-0.048392396 0.995674 -0.07931906 
-0.010568287 0.99777323 -0.06585639 
0.023256443 0.9984204 -0.05114633 
0.053869896 0.9978522 -0.03727105 
0.080772445 0.9965192 -0.020624826 
0.097905375 0.99519396 -0.0018870112 
0.102960706 0.9945975 0.013228216 
0.099272296 0.99484605 0.020651292 
0.09008224 0.995775 0.017819528 
0.075379446 0.99714357 0.0047583873 
0.05387201 0.9984588 -0.013336269 
0.028647585 0.9991295 -0.030326659 
0.006004943 0.99897283 -0.044915207 
-0.0107486695 0.9983555 -0.0563107 
-0.021834124 0.9978363 -0.062017687 
-0.026337808 0.99772054 -0.062130153 
-0.02441886 0.9979023 -0.059957676 
-0.02159437 0.99798 -0.059748 
-0.025681295 0.9978029 -0.061072078 
-0.038436312 0.9975798 -0.057941705 
-0.053305134 0.9975049 -0.046289466 
-0.06328726 0.99757385 -0.029004356 
-0.06659516 0.99765617 -0.015726782 
-0.25418317 0.96352905 -0.083681844 
-0.23078959 0.96898526 -0.08833871 
-0.18710868 0.9785456 -0.086249195 
-0.15000066 0.9863448 -0.06799829 
-0.13710594 0.9894345 -0.047131404 
-0.13985342 0.98922956 -0.043198727 
-0.1397444 0.9885044 -0.05771022 
-0.12566413 0.989091 -0.0768611 
-0.09574494 0.9915216 -0.08785191 
-0.054806832 0.9946766 -0.08726294 
-0.011534463 0.9967788 -0.07936727 
0.028293118 0.99721646 -0.06898435 
0.063136585 0.99646646 -0.05539269 
0.089080036 0.99536055 -0.036361676 
0.10079234 0.99478805 -0.015419169 
0.098763354 0.99510986 0.0015203478 
0.08689654 0.99614197 0.012257302 
0.068052344 0.9975762 0.014517999 
0.04443362 0.9989947 0.005940664 
0.017980112 0.9997838 -0.010442964 
-0.0075419736 0.9995713 -0.028290194 
-0.026274202 0.99869734 -0.043743506 
-0.03569384 0.99791837 -0.053712573 
-0.038705744 0.99764144 -0.056687593 
-0.03763534 0.99782807 -0.05406279 
-0.033270966 0.9983314 -0.047196668 
-0.029070903 0.99883914 -0.03841048 
-0.031058941 0.9990663 -0.030030616 
-0.041031774 0.9989367 -0.021022463 
-0.053417876 0.9985349 -0.008640533 
-0.06206569 0.99805206 0.0063195154 
-0.06513496 0.9977256 0.01735442 
-0.16959234 0.9834549 -0.06367856 
-0.16091722 0.9850833 -0.060963888 
-0.14768417 0.9875958 -0.053328913 
-0.14414471 0.98865896 -0.042140566 
-0.15175748 0.9876836 -0.038089804 
-0.15751004 0.98633695 -0.048270684 
-0.14959753 0.9864366 -0.06755471 
-0.12515835 0.9884968 -0.08490885 
-0.087377965 0.9917732 -0.093547344 
-0.04167282 0.9946927 -0.09407402 
0.0054478543 0.9959205 -0.090070695 
0.048189502 0.99543417 -0.08239274 
0.08162221 0.99429834 -0.068620875 
0.10026933 0.9937661 -0.04873348 
0.10168541 0.9944212 -0.028047962 
0.089459926 0.9959268 -0.011268325 
0.067830175 0.997696 0.0013434046 
0.039340436 0.99919564 0.007767459 
0.007969673 0.99996006 0.004058117 
-0.021626879 0.9997288 -0.008640986 
-0.045297235 0.9986776 -0.024319056 
-0.05852094 0.99760556 -0.03685923 
-0.060569715 0.9973089 -0.04130709 
-0.05634399 0.9976807 -0.03819203 
-0.049862865 0.9982679 -0.031226864 
-0.042392556 0.9988965 -0.020220049 
-0.035968926 0.99933964 -0.0051572938 
-0.034825068 0.99934757 0.009583711 
-0.04052846 0.9989653 0.020631263 
-0.04876196 0.99835783 0.030064156 
-0.054839723 0.9976948 0.039971773 
-0.05712065 0.99723995 0.047432844 
-0.12992513 0.9910045 -0.03208467 
-0.13255815 0.99069655 -0.030800141 
-0.1377479 0.990008 -0.030160772 
-0.14812797 0.98840237 -0.033449218 
-0.1574824 0.9865147 -0.044587977 
-0.15561114 0.985835 -0.06256726 
-0.13772067 0.9871182 -0.08142949 
-0.10598134 0.9898533 -0.09464991 
-0.064927064 0.9928583 -0.10008437 
-0.017891541 0.99480814 -0.1001834 
0.030530533 0.99481857 -0.096974574 
0.072652824 0.9933871 -0.088902265 
0.10041312 0.9921962 -0.07391948 
0.109059945 0.9925689 -0.053972185 
0.09969094 0.99442625 -0.034325786 
0.0779351 0.9967941 -0.018103167 
0.048003405 0.998835 -0.0049323156 
0.0124672735 0.999917 0.0032648996 
-0.023386253 0.999723 0.0026395505 
-0.05335032 0.9985558 -0.00633527 
-0.073623836 0.99711865 -0.018276488 
-0.081555896 0.9963342 -0.025823075 
-0.07818494 0.99666727 -0.02327463 
-0.068810746 0.9975364 -0.013646289 
-0.05756626 0.9983376 -0.0028485148 
-0.0466483 0.99885374 0.010732303 
-0.03796732 0.9988515 0.029228061 
-0.03417147 0.99833196 0.046537116 
-0.035936516 0.99778956 0.0558991 
-0.039863963 0.99742717 0.059582375 
-0.04292779 0.9971054 0.06275405 
-0.044048436 0.9968544 0.0658872 
-0.11237392 0.99361104 -0.010452058 
-0.12018645 0.99265796 -0.013623414 
-0.1310733 0.9911426 -0.021360204 
-0.14153466 0.98933905 -0.0342951 
-0.14488347 0.9881094 -0.0514649 
-0.13542837 0.9883069 -0.07006247 
-0.11207123 0.98992825 -0.08649897 
-0.0783024 0.9921911 -0.09708581 
-0.037957035 0.9941702 -0.1009208 
0.0072348216 0.9949517 -0.10009352 
0.052962866 0.99401814 -0.09551389 
0.089732535 0.99230367 -0.08533259 
0.108770296 0.9916833 -0.06879865 
0.10764124 0.99299914 -0.04864274 
0.08991772 0.99551797 -0.029304622 
0.061712753 0.99800164 -0.013574594 
0.027139582 0.9996298 -0.0019664036 
-0.010710083 0.9999332 0.004373893 
-0.045940276 0.9989372 0.0037606424 
-0.07231136 0.99737805 -0.0028375776 
-0.087193094 0.9961277 -0.011273247 
-0.0898866 0.99584645 -0.014507916 
-0.08240439 0.99657536 -0.0068643233 
-0.06871345 0.9976118 0.007012384 
-0.05257765 0.9984206 0.019796988 
-0.038718883 0.99867684 0.033845395 
-0.029941823 0.9981519 0.052880045 
-0.02635336 0.99720126 0.06996516 
-0.02635836 0.99674994 0.07612399 
-0.027042935 0.9968838 0.074103884 
-0.02717087 0.9970719 0.07147964 
-0.026827356 0.9971148 0.07101017 
-0.104166195 0.9945597 -0.0006563258 
-0.11187512 0.99369085 -0.007913162 
-0.120685846 0.99246585 -0.021132573 
-0.12608333 0.99130493 -0.03764958 
-0.123459734 0.99083805 -0.054752335 
-0.109571844 0.99143994 -0.070998944 
-0.08382547 0.99284095 -0.085089885 
-0.049354415 0.9943249 -0.09424556 
-0.009928636 0.99523604 -0.09698858 
0.031758282 0.99501103 -0.0945754 
0.07040124 0.9936508 -0.08775984 
0.09693719 0.9924312 -0.0753894 
0.10491592 0.9928302 -0.057279915 
0.09455872 0.9948707 -0.035930302 
0.07052846 0.997387 -0.015652934 
0.03865886 0.9992525 -0.0002951079 
0.0031715557 0.9999583 0.008575762 
-0.032286383 0.9994122 0.011532047 
-0.06201542 0.99802583 0.0099362265 
-0.08109414 0.9966917 0.0054346444 
-0.088602565 0.9960671 -1.7032302e-05 
-0.08544677 0.99634206 -0.0011865052 
-0.073791884 0.99724644 0.0073782858 
-0.05545074 0.9982317 0.021418776 
-0.034052473 0.9988506 0.033734437 
-0.017766904 0.9987662 0.04637198 
-0.010817735 0.9979169 0.06359986 
-0.0100311935 0.99684525 0.07873407 
-0.01028092 0.9965719 0.08209096 
-0.008805557 0.99701506 0.07670353 
-0.006220034 0.9974477 0.07112945 
-0.0042130123 0.9976168 0.06886937 
-0.09902399 0.995085 -0.00044184772 
-0.103550546 0.9945786 -0.009529175 
-0.107097626 0.99394816 -0.024440568 
-0.10697675 0.99342513 -0.040774543 
-0.10043872 0.99338526 -0.055658013 
-0.08449335 0.99404997 -0.06874321 
-0.05756328 0.995135 -0.07995596 
-0.022323461 0.9959371 -0.0872403 
0.016129766 0.9959341 -0.088628754 
0.05243094 0.99503833 -0.084556624 
0.08054956 0.9938543 -0.075931616 
0.0942063 0.993602 -0.062293034 
0.09065838 0.9949406 -0.04329426 
0.072098434 0.9971755 -0.021044973 
0.043606825 0.99904877 -0.00031738277 
0.010889946 0.9998403 0.014168459 
-0.021582002 0.9995543 0.020630876 
-0.050133493 0.99851125 0.021496257 
-0.07040834 0.99730617 0.020570762 
-0.07975014 0.99662715 0.019348962 
-0.078952484 0.99674 0.016610252 
-0.06993386 0.99743843 0.015031544 
-0.05442276 0.9983048 0.020635828 
-0.03197358 0.9989803 0.031877123 
-0.006463272 0.99907506 0.04251406 
0.010432984 0.99857074 0.05241852 
0.013663654 0.9977756 0.065247245 
0.010637341 0.9970391 0.076158024 
0.010385766 0.9970055 0.076630615 
0.014961523 0.9974522 0.06975142 
0.021357175 0.9977411 0.06369082 
0.025773631 0.9977883 0.06127187 
-0.09941528 0.9950003 -0.009548077 
-0.100298606 0.9948018 -0.017592994 
-0.09828571 0.9946883 -0.030584168 
-0.092911646 0.99469024 -0.04426047 
-0.08272898 0.9950015 -0.055929147 
-0.06450577 0.9957764 -0.06533329 
-0.03598171 0.99668217 -0.07300647 
-8.7817396e-05 0.99696577 -0.0778426 
0.036011178 0.99634403 -0.07747132 
0.06468376 0.99534434 -0.071454905 
0.08073966 0.9948509 -0.061260704 
0.08182139 0.99551743 -0.04743795 
0.06842933 0.9972225 -0.029407373 
0.043734305 0.9990046 -0.008779022 
0.013260327 0.9998623 0.009975561 
-0.016991198 0.9995992 0.022641825 
-0.042623628 0.9986996 0.027971858 
-0.061034966 0.9977065 0.029269295 
-0.07006554 0.99705404 0.031210383 
-0.069267906 0.99700713 0.034332428 
-0.060387842 0.9975932 0.034076046 
-0.04584368 0.99847496 0.030760808 
-0.027444197 0.99911267 0.031950608 
-0.003357922 0.99917424 0.04049153 
0.02288333 0.99844193 0.050894037 
0.03818178 0.9975714 0.058253016 
0.037429277 0.9972222 0.06439774 
0.03144962 0.99717057 0.06827748 
0.032447968 0.9973766 0.06470813 
0.041259207 0.9975422 0.056634225 
0.05215788 0.9973455 0.05080855 
0.05929513 0.9970469 0.048802022 
-0.090303995 0.9954107 -0.03166889 
-0.089112885 0.9953746 -0.03589427 
-0.083746694 0.99557126 -0.04271469 
-0.074675985 0.9959804 -0.049464665 
-0.06115713 0.99662966 -0.0546733 
-0.040295985 0.997474 -0.058497515 
-0.010694437 0.9980332 -0.061767835 
0.023234049 0.9977005 -0.063669994 
0.05274339 0.9967296 -0.06122384 
0.07026092 0.9960916 -0.053526856 
0.07337695 0.99637884 -0.04295313 
0.06341358 0.9975115 -0.030814176 
0.042593934 0.9989647 -0.015980817 
0.014152659 0.9998997 0.00074825896 
-0.016007956 0.9997446 0.015954316 
-0.041653804 0.9987817 0.026459597 
-0.059057865 0.9977639 0.031296674 
-0.067123845 0.99717855 0.033605978 
-0.06559715 0.9971174 0.038130943 
-0.05538623 0.99747473 0.044458985 
-0.038421713 0.9982243 0.045520537 
-0.01781864 0.9990314 0.04023306 
0.0033337513 0.99926335 0.03823261 
0.026981993 0.99854106 0.046774805 
0.050909534 0.9968995 0.059997115 
0.063302875 0.99577546 0.06651365 
0.059501186 0.9960853 0.06537469 
0.0517383 0.9968333 0.060385954 
0.05393824 0.9972209 0.051392023 
0.06595281 0.99696827 0.041285906 
0.07999005 0.99618226 0.034964576 
0.08886595 0.99549794 0.032965675 
-0.06843293 0.99631816 -0.051644985 
-0.06718666 0.9963984 -0.051732082 
-0.061772346 0.9967591 -0.05153121 
-0.05207179 0.9973711 -0.050394543 
-0.037184082 0.99811023 -0.04892284 
-0.01503053 0.99873066 -0.04807663 
0.0136004295 0.99874055 -0.04829595 
0.042268876 0.9979484 -0.048086777 
0.06215633 0.9970886 -0.04416983 
0.068106525 0.997027 -0.03603893 
0.06091918 0.9977892 -0.026562164 
0.043867014 0.9988945 -0.016893601 
0.019459398 0.99979645 -0.0053314236 
-0.009231164 0.99992687 0.007811727 
-0.036254853 0.99914163 0.020041209 
-0.0559456 0.9980171 0.028846147 
-0.06571432 0.9972873 0.03316264 
-0.06561565 0.99721014 0.035589416 
-0.056368988 0.99758464 0.040589627 
-0.03940844 0.99810153 0.047333438 
-0.016327985 0.99872106 0.047849942 
0.009036482 0.9991308 0.04069553 
0.03140254 0.9988264 0.036877196 
0.051864773 0.99755746 0.046789788 
0.07100123 0.99543214 0.06382526 
0.081034176 0.9942199 0.07042986 
0.07709668 0.99505824 0.06257158 
0.06918976 0.99640304 0.048928104 
0.07112629 0.9968489 0.03511997 
0.08288637 0.9962698 0.024010088 
0.09640628 0.9951768 0.018141128 
0.10476756 0.99435455 0.016815873 
-0.044048212 0.9972176 -0.06013993 
-0.043032065 0.99737465 -0.058241848 
-0.03833733 0.9977857 -0.054352272 
-0.02905399 0.99837476 -0.04902771 
-0.01411009 0.9989137 -0.0444125 
0.0073139993 0.99910045 -0.041770585 
0.032090303 0.9986644 -0.040492542 
0.052781247 0.9978695 -0.038350463 
0.062386848 0.99750954 -0.032904387 
0.05896504 0.9979509 -0.024842279 
0.04528132 0.9988314 -0.016900606 
0.02512273 0.99964017 -0.009402662 
0.0009668063 0.9999995 -0.0001491871 
-0.024315976 0.99964386 0.010999006 
-0.045587126 0.9987107 0.022335483 
-0.05849957 0.9977911 0.031476527 
-0.06152627 0.99743074 0.036695838 
-0.05524689 0.9976983 0.03931756 
-0.040902503 0.9982314 0.04314027 
-0.020323906 0.99864864 0.047832467 
0.005607056 0.9988977 0.04660579 
0.03279977 0.9987347 0.03812232 
0.053856596 0.99802136 0.032448854 
0.06857282 0.9968022 0.041025743 
0.08115425 0.9950085 0.05806919 
0.089601524 0.99395925 0.063377514 
0.08841834 0.99482375 0.05007855 
0.08236605 0.99616134 0.029639605 
0.08311993 0.99645543 0.012948219 
0.091700934 0.9957818 0.0030840838 
0.10156616 0.99482876 -0.00013141161 
0.107393116 0.9942165 0.0006839702 
-0.019918157 0.9986283 -0.04842449 
-0.018469699 0.9987444 -0.0465668 
-0.013863684 0.9990017 -0.042468652 
-0.0052756257 0.99929756 -0.037102673 
0.007648603 0.9994115 -0.03343798 
0.024300992 0.9991771 -0.03247589 
0.0407173 0.9986532 -0.032156114 
0.050843313 0.99826264 -0.029775808 
0.050678074 0.99841756 -0.024378845 
0.040492635 0.9990204 -0.01784862 
0.023426369 0.99964935 -0.012347066 
0.0031216214 0.99996805 -0.007367433 
-0.01810688 0.9998361 -0.00030630242 
-0.037885834 0.9992341 0.009798465 
-0.052178938 0.998395 0.02202002 
-0.057667963 0.9977691 0.033635944 
-0.05329325 0.9977085 0.04168618 
-0.04019475 0.9981481 0.045660567 
-0.020848159 0.9986035 0.04854316 
0.0022664443 0.9986736 0.051437885 
0.029069833 0.9983339 0.049845394 
0.055648334 0.99758846 0.04148042 
0.073225535 0.9967731 0.032883517 
0.0805388 0.9961275 0.035265073 
0.08532324 0.995281 0.046213463 
0.091621086 0.9946751 0.047192406 
0.09402403 0.99513966 0.029268788 
0.09140901 0.9958058 0.003920474 
0.0915928 0.9956943 -0.014276331 
0.09651454 0.995099 -0.021516703 
0.10199975 0.9945728 -0.020518588 
0.1046969 0.9943664 -0.016557835 
-0.0017412561 0.9996874 -0.02494135 
0.00054763997 0.999709 -0.024118323 
0.0056453184 0.9997493 -0.02166886 
0.013339451 0.99973637 -0.018693155 
0.02252667 0.99957436 -0.018541895 
0.031755615 0.9992643 -0.021505006 
0.03832932 0.99897957 -0.023889026 
0.039193764 0.9989758 -0.022612248 
0.03252803 0.9993075 -0.018071286 
0.018797545 0.9997393 -0.0129628405 
0.0005595729 0.9999577 -0.009182963 
-0.018668901 0.99980664 -0.0061769495 
-0.036775 0.9993229 -0.0012103486 
-0.05165954 0.99863434 0.007806859 
-0.059659064 0.99800026 0.02088823 
-0.057763424 0.99771065 0.03517122 
-0.04559556 0.99786866 0.04668213 
-0.025677793 0.99826676 0.0529549 
-0.0019299983 0.9984256 0.056060586 
0.022979187 0.99801916 0.058565136 
0.04972033 0.9970735 0.05807243 
0.074760266 0.9959142 0.050652668 
0.08907906 0.9952855 0.03836223 
0.09030055 0.99541616 0.03150305 
0.087662004 0.99561465 0.0326629 
0.09023951 0.995511 0.028542902 
0.094811246 0.9954571 0.008724859 
0.096054204 0.9952005 -0.018697577 
0.09667606 0.99459726 -0.037816964 
0.09859292 0.9941734 -0.043575346 
0.10001848 0.994184 -0.039932843 
0.099487886 0.99445796 -0.033993557 
0.01253287 0.9998899 -0.007943673 
0.015525456 0.9998491 -0.0077959364 
0.020926107 0.9997597 -0.0065468103 
0.027300509 0.99961215 -0.0054982607 
0.032329466 0.9994457 -0.007949885 
0.03461338 0.9993119 -0.013331654 
0.033584625 0.9992908 -0.017032444 
0.02864783 0.9994578 -0.01623445 
0.018389812 0.9997542 -0.012390041 
0.0024289514 0.99996215 -0.008358273 
-0.016880214 0.99984026 -0.0058819572 
-0.03556086 0.9993569 -0.0045971912 
-0.051436048 0.998675 -0.0016392458 
-0.06233188 0.9980361 0.0062319664 
-0.06478524 0.9976997 0.019960316 
-0.056461297 0.9977297 0.036709324 
-0.03833393 0.99793476 0.05154341 
-0.014062401 0.99808997 0.06015539 
0.0120326 0.99789983 0.063649505 
0.037603628 0.9971465 0.065458305 
0.06338898 0.99584836 0.06532851 
0.086382605 0.99453145 0.058697198 
0.09889539 0.9941417 0.04361252 
0.09723647 0.99486184 0.028197702 
0.08914696 0.99582714 0.01952328 
0.0868491 0.996155 0.011507992 
0.09144115 0.99578834 -0.006650318 
0.09583336 0.9948688 -0.03243516 
0.09701621 0.99395293 -0.051434986 
0.09603067 0.99371314 -0.057552002 
0.093483016 0.9941345 -0.054383814 
0.089780964 0.9947595 -0.048917748 
0.018662043 0.99982476 0.001501681 
0.021748185 0.99976236 0.0015376572 
0.026633045 0.9996429 0.0022239522 
0.031168133 0.9995119 0.0021221074 
0.032705735 0.9994641 -0.0013795443 
0.030481905 0.99950963 -0.0071638697 
0.025578387 0.9996109 -0.011127346 
0.018468989 0.9997634 -0.011485001 
0.0072719636 0.9999236 -0.010003924 
-0.009027533 0.9999225 -0.008570047 
-0.027821496 0.99958074 -0.008027324 
-0.044708703 0.9989691 -0.007876991 
-0.05747213 0.998332 -0.0054818564 
-0.06405122 0.997943 0.0027312674 
-0.0617689 0.9979277 0.01802696 
-0.04948123 0.99807924 0.037275985 
-0.029159939 0.9980734 0.05476621 
-0.0044093067 0.99786425 0.06517423 
0.021160439 0.9974171 0.0686394 
0.04529257 0.9966027 0.06878729 
0.06797659 0.9953947 0.0675909 
0.08746054 0.99428135 0.06127992 
0.09892141 0.994079 0.044960808 
0.09755026 0.9949528 0.023516579 
0.08760746 0.99613094 0.0069421944 
0.081882946 0.9966363 -0.00336239 
0.085417695 0.99620324 -0.016824672 
0.09122906 0.99514866 -0.03683016 
0.0920012 0.99431366 -0.053631198 
0.08778685 0.9942628 -0.06111453 
0.08132792 0.99482423 -0.060914878 
0.07492792 0.99550205 -0.057978142 
0.013532208 0.99989283 0.005593688 
0.016509742 0.99984884 0.0054653496 
0.020840889 0.9997686 0.005333978 
0.024110842 0.9997008 0.0041388087 
0.024062574 0.9997103 0.00060036476 
0.020639103 0.99977833 -0.004170561 
0.015568609 0.99984866 -0.0077782758 
0.009360481 0.9999087 -0.009753838 
-0.0002754077 0.9999357 -0.01134783 
-0.014660245 0.99981135 -0.012744586 
-0.03107563 0.99942625 -0.013472921 
-0.04500995 0.9989026 -0.012954208 
-0.054090835 0.99849 -0.009591241 
-0.05680994 0.9983849 -0.00059578975 
-0.051775735 0.99854577 0.015026967 
-0.03883415 0.9986534 0.03440032 
-0.020012584 0.99843144 0.052290376 
0.0022646408 0.9979739 0.063583806 
0.0253766 0.9974157 0.06721627 
0.04651547 0.99673915 0.065935895 
0.06436667 0.9959171 0.06329527 
0.078705475 0.995252 0.057262864 
0.0883196 0.9952107 0.04189784 
0.08898854 0.9958609 0.018499654 
0.0814844 0.99667084 -0.0027520044 
0.07518646 0.99706125 -0.014695558 
0.07656925 0.99679893 -0.023003872 
0.08127234 0.99608713 -0.03471838 
0.081111215 0.9955983 -0.04695852 
0.07531156 0.9956212 -0.055377632 
0.06733114 0.9959651 -0.059330974 
0.060210723 0.99634916 -0.060524005 
0.005933403 0.9999547 0.007452942 
0.009371323 0.9999292 0.007339381 
0.014001085 0.99987966 0.006678389 
0.017115593 0.9998411 0.0049829255 
0.017109215 0.99985117 0.0022486658 
0.014355355 0.9998966 -0.0009727765 
0.010388599 0.9999369 -0.0042776284 
0.0053939023 0.999954 -0.007939091 
-0.0027644243 0.9999233 -0.0120734805 
-0.015386613 0.9997658 -0.015219642 
-0.0297958 0.9994294 -0.015908524 
-0.04125285 0.9990534 -0.01380318 
-0.04703478 0.9988527 -0.0089955395 
-0.046706308 0.99890864 -0.0002767915 
-0.040546708 0.9990916 0.013113987 
-0.029155403 0.9991328 0.029726375 
-0.013797164 0.99884975 0.0459225 
0.005049722 0.9983441 0.057302713 
0.025590517 0.9978003 0.061152745 
0.044042535 0.9973087 0.05861412 
0.057245847 0.9968835 0.054279983 
0.065828264 0.9966536 0.04845953 
0.072428316 0.9967199 0.036105156 
0.0756022 0.99702734 0.014866934 
0.0731474 0.9972877 -0.008172452 
0.067800805 0.99744433 -0.022535974 
0.065780826 0.99744654 -0.027811412 
0.067770384 0.99720484 -0.031460993 
0.067468494 0.9969977 -0.037995256 
0.06314788 0.9969222 -0.04646005 
0.057298012 0.99686533 -0.054557998 
0.05187121 0.99682283 -0.060446225 
0.0005283121 0.9999495 0.010032262 
0.00466548 0.9999377 0.010143577 
0.00989381 0.99990696 0.009400561 
0.013362227 0.99988157 0.007637341 
0.014338741 0.99988186 0.005540518 
0.013299965 0.99990726 0.0029596954 
0.010964459 0.99993944 -0.001014412 
0.007083711 0.99995375 -0.00651183 
1.0974261e-05 0.99992293 -0.012416454 
-0.011389042 0.9998041 -0.016193775 
-0.024554465 0.9995738 -0.015792863 
-0.03442347 0.99934524 -0.01114695 
-0.03811237 0.9992646 -0.0042071287 
-0.0364643 0.99932593 0.0042592892 
-0.031399533 0.9993951 0.014951735 
-0.023742042 0.9993217 0.028152514 
-0.013157435 0.9990366 0.041868057 
0.0019781315 0.9986384 0.052129835 
0.020428302 0.99827945 0.054961678 
0.037303157 0.9980217 0.050609134 
0.04785225 0.9978717 0.044298645 
0.052983575 0.9978562 0.038415812 
0.057879124 0.99788034 0.029747471 
0.063646294 0.99788344 0.013339045 
0.06588881 0.9977925 -0.008298825 
0.061416037 0.9978125 -0.024464391 
0.055630546 0.9980149 -0.029522905 
0.054291286 0.9981021 -0.029064577 
0.05469288 0.9979925 -0.03193431 
0.05435011 0.99771404 -0.040160526 
0.053291146 0.9972833 -0.050854858 
0.051081415 0.99690163 -0.05981583 
-0.004945302 0.999928 0.010941287 
-0.00052047084 0.9999381 0.011114516 
0.004975102 0.99993384 0.010376089 
0.009036579 0.9999211 0.008736161 
0.011895047 0.99990475 0.0070046224 
0.013886675 0.99989384 0.0044260053 
0.014487385 0.99989504 -0.0004349473 
0.012763704 0.99989206 -0.007290608 
0.007365844 0.9998724 -0.014178003 
-0.002715033 0.99983233 -0.018108064 
-0.015109428 0.9997471 -0.016655369 
-0.024643006 0.99964726 -0.009907742 
-0.02836947 0.99959695 -0.0011099691 
-0.027887456 0.99958277 0.0075175553 
-0.025858516 0.999525 0.01677102 
-0.022731943 0.99934685 0.02809414 
-0.01676241 0.99904335 0.04039168 
-0.0054134834 0.99874204 0.049850956 
0.010188265 0.99858636 0.052169397 
0.024968155 0.99857545 0.047157783 
0.034389652 0.9986379 0.03923886 
0.039417148 0.9987118 0.031952642 
0.044940505 0.99868274 0.024764389 
0.053063598 0.99850345 0.013236105 
0.059225082 0.9982387 -0.0034661205 
0.057439554 0.9981782 -0.018467812 
0.050666604 0.9983968 -0.02523653 
0.046422496 0.9985802 -0.026125845 
0.046390638 0.9985045 -0.028923322 
0.04912984 0.99812335 -0.03655462 
0.052823167 0.99750066 -0.04692653 
0.05440419 0.9969561 -0.055845864 
-0.010948665 0.9998961 0.0093799895 
-0.0066307285 0.99993837 0.008903556 
-0.0010163996 0.9999712 0.007525021 
0.003965892 0.999976 0.0056955847 
0.009121694 0.9999497 0.004174448 
0.01439687 0.99989474 0.0018260812 
0.01808583 0.9998322 -0.0029384184 
0.018621553 0.9997788 -0.009777203 
0.0148681225 0.9997516 -0.016601926 
0.0060237893 0.99977165 -0.02050151 
-0.0058050593 0.99980634 -0.018802332 
-0.015829496 0.9998076 -0.011590242 
-0.02106504 0.99977505 -0.002454745 
-0.02291735 0.99971956 0.0059691155 
-0.023523249 0.9996157 0.0146661755 
-0.02297212 0.9994113 0.025484258 
-0.019621195 0.99910396 0.037502047 
-0.011965056 0.998805 0.0473872 
-0.0012191611 0.99868304 0.05129108 
0.009298159 0.99880505 0.047981784 
0.017009454 0.9990819 0.03931952 
0.022398707 0.99932057 0.029269125 
0.028532196 0.99937105 0.0210566 
0.038507726 0.9991698 0.013300171 
0.049530108 0.99876827 0.0029882707 
0.05408506 0.99849653 -0.0089211995 
0.0503773 0.9985778 -0.017452357 
0.044323683 0.998792 -0.021215813 
0.041736443 0.99882275 -0.024721934 
0.044351354 0.9985373 -0.030922446 
0.050641093 0.9979527 -0.039063554 
0.05556966 0.9973897 -0.046108212 
-0.016602885 0.9998127 0.009943183 
-0.012521252 0.9998909 0.007845989 
-0.006583105 0.9999677 0.0046290723 
-0.0003234515 0.99999875 0.0015927835 
0.006933957 0.9999759 -0.00045072814 
0.014594161 0.99988997 -0.0026878037 
0.020208897 0.99977326 -0.0067168595 
0.021922255 0.99968034 -0.012595077 
0.018868055 0.9996463 -0.018742688 
0.01049836 0.99968994 -0.022582423 
-0.0015275081 0.99977046 -0.021373104 
-0.013171558 0.9997995 -0.015086612 
-0.021358423 0.9997483 -0.0068753166 
-0.026272317 0.9996544 0.0009725417 
-0.028581576 0.9995472 0.009421289 
-0.028248515 0.99940324 0.019882673 
-0.025233325 0.99918777 0.031419527 
-0.020307168 0.9989162 0.041882284 
-0.014497018 0.99870956 0.048674013 
-0.008275531 0.99874896 0.049315635 
-0.0020319973 0.99908316 0.042764574 
0.0037522416 0.9994598 0.032650135 
0.010241562 0.99964666 0.024530815 
0.021078765 0.99958897 0.019433115 