# OOMMF OVF 2.0
# Segment count: 1
# Begin: Segment
# Begin: Header
# Title: m
# meshtype: rectangular
# meshunit: m
# xmin: 0
# ymin: 0
# zmin: 0
# xmax: 1.6e-07
# ymax: 1.6e-07
# zmax: 5e-09
# valuedim: 3
# valuelabels: m_x m_y m_z
# valueunits: 1 1 1
# Desc: Total simulation time:  2.4020732647129197e-12  s
# xbase: 2.5e-09
# ybase: 2.5e-09
# zbase: 2.5e-09
# xnodes: 32
# ynodes: 32
# znodes: 1
# xstepsize: 5e-09
# ystepsize: 5e-09
# zstepsize: 5e-09
# End: Header
# Begin: Data Text
0.6057747 0.785195 -0.12847503 
0.5616867 0.82426506 -0.071380936 
0.46028683 0.8876165 0.016525874 
0.31536296 0.9445766 0.091220744 
0.16804025 0.9764446 0.13534565 
0.04398751 0.9889634 0.14148003 
-0.029603545 0.99410987 0.104256 
-0.04001578 0.9974031 0.059881594 
-0.02256074 0.99817806 0.055960063 
-0.02279672 0.9959833 0.086589314 
-0.043863777 0.9930183 0.109501414 
-0.0687373 0.9917192 0.10848238 
-0.082683615 0.9917427 0.09803045 
-0.0796157 0.9929452 0.087870665 
-0.058597036 0.99640316 0.061214503 
-0.013551934 0.999668 0.021915307 
0.028803388 0.99955666 0.0075390246 
0.020605836 0.99950665 0.02370444 
-0.031058764 0.9987346 0.039554927 
-0.06800293 0.9965311 0.047973674 
-0.057140082 0.996322 0.06385663 
-0.019064516 0.99641395 0.082437485 
0.011488385 0.9965667 0.08199332 
0.022791877 0.9980775 0.057635088 
0.021630812 0.99938345 0.027657535 
0.020495705 0.99977106 0.0061557917 
0.0246545 0.9996838 -0.0049383715 
0.02395349 0.99970174 -0.0047800853 
0.017841632 0.99983704 -0.0027724737 
0.023947757 0.9995932 -0.015493245 
0.04267687 0.9981104 -0.04420746 
0.052061297 0.9961874 -0.07000236 
0.43377036 0.8895797 -0.14314775 
0.39831603 0.9148093 -0.06684578 
0.3145905 0.9488789 0.025722869 
0.20050955 0.9761456 0.083281845 
0.095811285 0.9898727 0.10474803 
0.015930953 0.99482626 0.10033418 
-0.027743211 0.99705815 0.07145204 
-0.03031236 0.9986177 0.042941272 
-0.018240208 0.99872136 0.047148958 
-0.022399902 0.9969391 0.074904256 
-0.039967567 0.9949947 0.09158679 
-0.056747407 0.9945308 0.0876833 
-0.064520955 0.99490714 0.07744016 
-0.061974242 0.9957697 0.0678379 
-0.047830217 0.99789625 0.043764457 
-0.014059874 0.99985695 0.009411455 
0.01865513 0.9998237 -0.0021681855 
0.010810677 0.9998466 0.013781401 
-0.03186695 0.9990166 0.030828644 
-0.062079016 0.99719423 0.041831177 
-0.05259868 0.996923 0.058119614 
-0.01976111 0.99693 0.07576336 
0.007621559 0.9969922 0.07712729 
0.01891424 0.99813986 0.05795772 
0.019581564 0.9992722 0.03273668 
0.02068601 0.99969625 0.01340218 
0.026132336 0.99965525 0.002567412 
0.025867825 0.99966484 0.0010886474 
0.01946527 0.9998104 0.0005691865 
0.023227537 0.99965334 -0.012402409 
0.03890735 0.9985324 -0.03767251 
0.05010757 0.9969671 -0.059547886 
-0.052340146 0.956479 -0.28706878 
0.01378309 0.985406 -0.16966169 
0.053800195 0.9980108 -0.03286363 
0.035767887 0.99872565 0.0356053 
0.0062895482 0.99865705 0.051425267 
-0.014781306 0.998829 0.046067305 
-0.023279171 0.99925226 0.030871892 
-0.017697783 0.9996308 0.020615382 
-0.012422942 0.9993931 0.032543227 
-0.021667156 0.99821484 0.05565787 
-0.035919923 0.99722916 0.0651449 
-0.04366538 0.99730235 0.05900286 
-0.044328816 0.9977284 0.05072387 
-0.04241248 0.9981401 0.04379169 
-0.03557787 0.9990696 0.024376754 
-0.013169991 0.9999084 -0.0031174968 
0.010191796 0.99988943 -0.010834172 
0.003621586 0.9999809 0.005015109 
-0.029195609 0.99930763 0.023061497 
-0.052814104 0.997957 0.035951618 
-0.046045825 0.9976437 0.05086208 
-0.0201864 0.9976795 0.06502457 
0.0024812943 0.99780065 0.06624146 
0.012319187 0.9985958 0.05152529 
0.013425738 0.9994248 0.031142477 
0.015658202 0.9997643 0.01503689 
0.021471247 0.9997479 0.006582849 
0.020720348 0.9997698 0.0055701025 
0.01344493 0.9999027 0.0037114425 
0.01480627 0.99984986 -0.009002404 
0.026964802 0.99917406 -0.03040257 
0.03674749 0.99818254 -0.04776328 
-0.905041 0.10231327 -0.41283506 
-0.645432 0.6345924 -0.42510018 
-0.28344756 0.9388675 -0.19541085 
-0.12478601 0.99047416 -0.05821952 
-0.063393526 0.99790716 -0.012755385 
-0.032402262 0.99947226 -0.0023008727 
-0.01387194 0.99990207 -0.0019019465 
-0.0021078857 0.99999756 0.0006642512 
-0.0014118381 0.9998913 0.014683044 
-0.014277337 0.9994086 0.031285524 
-0.027083572 0.9990102 0.03528757 
-0.030240312 0.99910676 0.029515866 
-0.028367661 0.99927425 0.025423655 
-0.02894457 0.99930716 0.023398213 
-0.027311943 0.9995715 0.01053466 
-0.011658458 0.99989164 -0.0090010995 
0.006588007 0.99989796 -0.01268228 
0.002678414 0.9999941 0.0021676607 
-0.02223779 0.99957156 0.01903514 
-0.04253526 0.9986211 0.030767547 
-0.04108498 0.998312 0.041052867 
-0.024028553 0.998526 0.048668668 
-0.007704785 0.9988516 0.047287844 
-0.0007662819 0.99936026 0.035757165 
-0.00031419776 0.99978554 0.020709885 
0.002371594 0.9999449 0.0102240825 
0.008420485 0.9999358 0.007587164 
0.007884636 0.99991447 0.010434699 
0.0013752198 0.99995005 0.009902154 
0.002744627 0.9999958 -0.0009821289 
0.013661336 0.999743 -0.01809655 
0.022588598 0.9992624 -0.031056052 
-0.6578171 -0.6921933 -0.29689234 
-0.7989515 -0.2088087 -0.56398183 
-0.523313 0.7555599 -0.39404666 
-0.23827061 0.95728296 -0.16381845 
-0.105216086 0.991825 -0.07220058 
-0.036780614 0.9986284 -0.037265085 
-0.0005463762 0.9997989 -0.020046096 
0.014920242 0.9998511 -0.008671556 
0.013371053 0.9999043 0.003582644 
-0.00071534666 0.9999084 0.013521948 
-0.013595179 0.99980736 0.014156914 
-0.018165974 0.99978554 0.009947924 
-0.020353733 0.9997477 0.009502956 
-0.025714302 0.99961156 0.010751102 
-0.026639508 0.9996425 0.0022963462 
-0.012950391 0.99985385 -0.011161333 
0.0040358724 0.9999225 -0.0117843645 
0.0032043734 0.99999374 0.0015515692 
-0.016460136 0.9997354 0.016073413 
-0.036052946 0.999031 0.025243744 
-0.040364433 0.99872106 0.030447172 
-0.03127013 0.99899113 0.032234963 
-0.020487446 0.999366 0.029120961 
-0.015391896 0.9996584 0.021122979 
-0.0136506185 0.9998365 0.011863671 
-0.008231767 0.99993604 0.0077514034 
-0.0001690008 0.99993545 0.011368467 
0.001055982 0.99983364 0.018207792 
-0.003245211 0.9998056 0.019444747 
-0.0005172073 0.99993914 0.011027042 
0.010618778 0.9999421 -0.0017342771 
0.01946683 0.9997526 -0.010768469 
-0.6470596 -0.6651458 -0.37268612 
-0.7567391 -0.18665358 -0.62650347 
-0.5133857 0.73728997 -0.43913415 
-0.24081936 0.9498101 -0.19966723 
-0.10008452 0.9900379 -0.09903588 
-0.021821225 0.9984507 -0.051187884 
0.017311646 0.99964106 -0.020449156 
0.029284596 0.99956596 -0.0032201647 
0.02550243 0.9996591 0.0056039444 
0.012948308 0.99986833 0.009787436 
-0.00021007223 0.9999648 0.008390456 
-0.010581314 0.999932 0.0049093836 
-0.020867053 0.9997719 0.0045597996 
-0.030838884 0.99951655 0.0039659883 
-0.031716358 0.99948514 -0.0048585394 
-0.017851682 0.99972415 -0.015265973 
-0.0015519733 0.99990785 -0.01349379 
-0.00064459577 0.9999996 -0.000654256 
-0.016532559 0.999785 0.012512708 
-0.034362607 0.99920946 0.019995013 
-0.040222947 0.9989468 0.022077564 
-0.033800643 0.99921083 0.020862207 
-0.024358796 0.9995462 0.01772257 
-0.018032579 0.999753 0.012988225 
-0.01257993 0.99988705 0.008237364 
-0.003513325 0.99995875 0.008385028 
0.0057439483 0.99987006 0.015066992 
0.007268572 0.9997169 0.022660892 
0.0035994484 0.9997065 0.02396008 
0.006243419 0.99982053 0.017888518 
0.016857326 0.9998105 0.009741877 
0.025404897 0.99966663 0.00461148 
-0.7992304 0.32488826 -0.5056467 
-0.6098272 0.6297454 -0.48117727 
-0.329469 0.90328765 -0.27481204 
-0.15613435 0.9778565 -0.13935134 
-0.055720735 0.99530464 -0.07914501 
0.005385015 0.9992328 -0.038790833 
0.03073089 0.9995043 -0.0068447203 
0.033131465 0.99940974 0.009085925 
0.028545605 0.9994955 0.013928984 
0.019855358 0.99969184 0.014902769 
0.006492342 0.9998973 0.012782882 
-0.010107247 0.9999108 0.008734988 
-0.026500773 0.9996364 0.0049960907 
-0.03697604 0.99931526 -0.0013809046 
-0.035086088 0.9992969 -0.013216391 
-0.021296568 0.9995425 -0.021477628 
-0.0077363993 0.99983424 -0.016484011 
-0.0072428337 0.9999712 -0.0022794725 
-0.019525917 0.99975175 0.010729484 
-0.03230362 0.99933887 0.016687319 
-0.033673033 0.9993029 0.016122935 
-0.023800641 0.99963766 0.012570473 
-0.012100824 0.99988693 0.00893721 
-0.003839997 0.99997634 0.0057143494 
0.0038239986 0.9999872 0.0033373157 
0.013140459 0.99989974 0.0052869976 
0.019473195 0.9997376 0.012068973 
0.017669415 0.9996824 0.017970134 
0.011905049 0.9997609 0.018338282 
0.012692182 0.9998131 0.0145838745 
0.02190957 0.9996988 0.011055557 
0.03005636 0.9995015 0.009663882 
-0.38288128 0.8965292 -0.22279435 
-0.2781718 0.94154155 -0.19005263 
-0.15477905 0.98122823 -0.115042105 
-0.07160059 0.99489045 -0.07117859 
-0.009584332 0.9987487 -0.04908532 
0.029311763 0.9993402 -0.021450318 
0.03648838 0.9993248 0.0043274304 
0.02854103 0.99946404 0.016036 
0.022871498 0.9995612 0.01882908 
0.016962225 0.9996799 0.018773744 
0.004250228 0.99985605 0.016424742 
-0.0139616495 0.9998381 0.011360232 
-0.029738262 0.99955165 0.0034827315 
-0.03557806 0.99933547 -0.00792762 
-0.03013376 0.99934053 -0.020264229 
-0.018823465 0.9995316 -0.024129339 
-0.010634473 0.99983495 -0.01473732 
-0.011608101 0.99993235 0.0008117482 
-0.019240484 0.9997419 0.012079628 
-0.023893856 0.9996135 0.014207234 
-0.016970836 0.9998113 0.009449437 
-0.0013621316 0.9999959 0.002542147 
0.011930732 0.9999245 -0.002960372 
0.018728316 0.9998044 -0.0063690594 
0.023526667 0.9996937 -0.007680823 
0.027785573 0.9996022 -0.004839815 
0.02711917 0.9996316 0.001139479 
0.019400196 0.99979997 0.0048774253 
0.010165491 0.9999408 0.0038918755 
0.008737901 0.999961 0.001272096 
0.016707547 0.9998602 0.0007882311 
0.024862748 0.9996889 0.001994416 
-0.14252181 0.9865759 -0.079722025 
-0.10084293 0.99275017 -0.06540568 
-0.052026525 0.99769336 -0.043603506 
-0.010404532 0.9993058 -0.03577552 
0.028732177 0.99922633 -0.026856685 
0.04645409 0.9989033 -0.0058624716 
0.035366744 0.9993098 0.011366436 
0.018051839 0.9996902 0.017141636 
0.010644178 0.99977934 0.0181091 
0.006798311 0.9998261 0.017367952 
-0.0027027642 0.9998881 0.014716038 
-0.016896836 0.9998212 0.008496349 
-0.027015748 0.99963206 -0.002443262 
-0.027267715 0.9995136 -0.015139209 
-0.020821512 0.9995081 -0.023452947 
-0.014164908 0.999684 -0.020768078 
-0.011086536 0.9999111 -0.007416048 
-0.011796942 0.99990225 0.007511318 
-0.01313183 0.99980557 0.014710502 
-0.008586593 0.9998956 0.01163139 
0.0065757902 0.9999756 0.0023766288 
0.025983594 0.999631 -0.007927377 
0.037342824 0.9991785 -0.015744181 
0.038080346 0.9990723 -0.020113027 
0.03520748 0.99915904 -0.021018777 
0.031200303 0.9993556 -0.017749622 
0.022612 0.99966353 -0.012713796 
0.009217458 0.9998994 -0.010782322 
-0.003169017 0.9999051 -0.013415045 
-0.006955309 0.9998356 -0.016749822 
-0.0011917591 0.99986225 -0.016559022 
0.005970703 0.9998791 -0.014361653 
-0.040854476 0.9990462 -0.015415387 
-0.021886114 0.999687 -0.012122738 
0.0013723093 0.9999522 -0.009677983 
0.026120905 0.99959403 -0.011381112 
0.047682025 0.99885005 -0.005000447 
0.046654604 0.99888206 0.0076269773 
0.02452884 0.9996106 0.013307162 
0.0045906836 0.999895 0.0137454495 
-0.0022591788 0.9998859 0.014934935 
-0.0038843094 0.9998792 0.015057524 
-0.008629814 0.99989176 0.011924341 
-0.015981713 0.9998653 0.0037476197 
-0.019733258 0.99976754 -0.008695374 
-0.017547166 0.99966955 -0.018784443 
-0.013539174 0.9996905 -0.020871157 
-0.0113858795 0.99984604 -0.013355537 
-0.011214071 0.9999371 0.00022824467 
-0.010858574 0.9998773 0.011292994 
-0.007042111 0.99988836 0.013181839 
0.004772139 0.99996936 0.0062174345 
0.025539624 0.9996631 -0.0046471753 
0.045550272 0.9988467 -0.015179398 
0.052424483 0.9983657 -0.022753967 
0.045824155 0.9986029 -0.026310852 
0.035359573 0.99904233 -0.025770206 
0.025179109 0.9994499 -0.021584366 
0.012344763 0.9997823 -0.016821006 
-0.0033713034 0.99987364 -0.015540156 
-0.017114704 0.99967057 -0.019126942 
-0.023169557 0.99944437 -0.023961514 
-0.020940045 0.9994678 -0.02501367 
-0.016390061 0.99959046 -0.02346121 
-0.015425202 0.99960303 0.023576953 
-0.0035394523 0.9998148 0.018919412 
0.012605587 0.999857 0.011274865 
0.029936137 0.99954003 0.0048594214 
0.04048174 0.99916536 0.0054754578 
0.032614637 0.9994438 0.0069603026 
0.012480268 0.99990684 0.0055293916 
-0.0036119116 0.99996126 0.008038858 
-0.009854928 0.99984336 0.014708753 
-0.010986924 0.99978226 0.017739393 
-0.011492981 0.99983907 0.0137802055 
-0.012344467 0.9999176 0.003526919 
-0.0121837305 0.99989086 -0.008360429 
-0.011170344 0.9998326 -0.014500765 
-0.010333383 0.99985784 -0.013331593 
-0.010479352 0.9999197 -0.007126779 
-0.012128581 0.99992603 0.00094939204 
-0.012334563 0.99990916 0.0054324595 
-0.006350567 0.99997455 0.0032527233 
0.008937163 0.9999543 -0.0034079733 
0.03101195 0.99945813 -0.011033667 
0.048921645 0.99865085 -0.017411156 
0.052283917 0.9984166 -0.020754086 
0.042681374 0.9988815 -0.020351216 
0.030455172 0.99939275 -0.016930332 
0.020473367 0.99972165 -0.011726578 
0.009541908 0.9999306 -0.0069185444 
-0.003782329 0.9999794 -0.0052008177 
-0.016104475 0.9998339 -0.008546883 
-0.023248937 0.9996269 -0.014342378 
-0.024655249 0.99954927 -0.017132148 
-0.02362147 0.999577 -0.016967678 
-0.023025302 0.9993574 0.027472861 
-0.012148911 0.9997352 0.019547982 
0.0034640308 0.99995834 0.008446463 
0.018582707 0.9998274 -4.1592066e-05 
0.026658202 0.99963593 -0.004171486 
0.022013659 0.9997308 -0.00733103 
0.007960785 0.99995005 -0.0060510784 
-0.006914162 0.9999679 0.0040810504 
-0.015849458 0.9997401 0.016385159 
-0.016814683 0.9996317 0.021305326 
-0.012528177 0.99977165 0.017312173 
-0.008331454 0.9999389 0.007259573 
-0.0069891983 0.99997157 -0.0028336286 
-0.0074569057 0.9999457 -0.007281061 
-0.0068309354 0.9999511 -0.007147735 
-0.0069625406 0.99996096 -0.0054580495 
-0.010324445 0.9999393 -0.0038494575 
-0.011454548 0.9999244 -0.004483239 
-0.004560728 0.9999601 -0.007686693 
0.010412134 0.9998768 -0.011751302 
0.029091801 0.9994492 -0.015969003 
0.042931266 0.9988998 -0.018869366 
0.045010746 0.99882233 -0.018112972 
0.037295405 0.9992056 -0.01404732 
0.02832154 0.9995589 -0.0089456905 
0.022133512 0.99974716 -0.00397452 
0.015043465 0.9998866 0.0008095011 
0.004926486 0.99998087 0.003762246 
-0.0053208545 0.99998456 0.0016529615 
-0.012184892 0.9999168 -0.0042579486 
-0.015423699 0.99984425 -0.008581159 
-0.016818099 0.9998097 -0.009893274 
-0.017966952 0.99978644 0.010212371 
-0.008043765 0.99995977 0.003989923 
0.0053281775 0.9999786 -0.003820107 
0.01653026 0.9998189 -0.009426284 
0.0218183 0.9996739 -0.013269265 
0.018004913 0.999721 -0.015294193 
0.004357951 0.99994034 -0.010019536 
-0.013192688 0.9999089 0.0028608888 
-0.023477472 0.99960923 0.0151722245 
-0.020838354 0.99957246 0.020512948 
-0.011539343 0.99976355 0.018432017 
-0.0054582534 0.9999372 0.009796708 
-0.0047574444 0.99998856 -0.0004481049 
-0.0043443646 0.9999727 -0.0059709284 
-0.0007622084 0.9999794 -0.0063892403 
0.00014751023 0.9999844 -0.0056065978 
-0.00332724 0.999973 -0.006555037 
-0.0023168793 0.9999546 -0.009249725 
0.006241852 0.9999064 -0.01218083 
0.018004386 0.9997147 -0.01570543 
0.029656803 0.999339 -0.021030191 
0.037657805 0.99898636 -0.024663368 
0.03828027 0.9990085 -0.022733664 
0.03246089 0.999323 -0.017314302 
0.025958063 0.9995879 -0.012262831 
0.021202866 0.99974304 -0.008030306 
0.0146258995 0.9998896 -0.0026196984 
0.004976232 0.9999847 0.0024195537 
-0.0040143523 0.9999886 0.0025869529 
-0.009019172 0.99995756 -0.0018970383 
-0.011053334 0.99991965 -0.006201755 
-0.012268524 0.9998926 -0.008019181 
0.0008233117 0.99996984 0.0077227596 
0.006815935 0.9999665 0.004537385 
0.012966876 0.9999154 0.0010216862 
0.015995104 0.9998703 -0.001883135 
0.015076542 0.99986804 -0.0060595768 
0.008187355 0.99991685 -0.009968993 
-0.0063981107 0.9999446 -0.008354749 
-0.022467121 0.99974704 -0.0010311875 
-0.0278167 0.9995875 0.0071467604 
-0.018709607 0.9997443 0.012702837 
-0.0061738566 0.9998952 0.013096353 
-0.00088778243 0.9999845 0.005495931 
-0.0009967352 0.9999841 -0.0055619036 
0.001679342 0.9999419 -0.010654645 
0.007710822 0.99994147 -0.0076002674 
0.008466412 0.9999549 -0.0043014456 
0.006072983 0.9999636 -0.0059965723 
0.010316227 0.9999076 -0.008856692 
0.018396737 0.99977803 -0.010272847 
0.02393877 0.99960864 -0.014478033 
0.028134989 0.999341 -0.022938227 
0.031995054 0.9990836 -0.028430453 
0.032157253 0.9991372 -0.026284967 
0.027481437 0.9994105 -0.020575015 
0.02171856 0.99963564 -0.016027948 
0.015896238 0.9997997 -0.012158692 
0.0072958837 0.9999556 -0.005974598 
-0.0032828262 0.99999446 0.0006140214 
-0.01066467 0.99993956 0.002689052 
-0.011922601 0.999929 -5.881349e-05 
-0.010053649 0.9999431 -0.0035951673 
-0.008762179 0.99994713 -0.00538833 
0.0047939145 0.99975586 0.021570781 
0.00551767 0.99978405 0.020038432 
0.004384991 0.9998381 0.01745402 
0.0017620794 0.99991894 0.012610138 
-0.0018691892 0.99999106 0.0037864295 
-0.008364319 0.9999435 -0.006568966 
-0.01816496 0.9997463 -0.013319404 
-0.025135353 0.99958277 -0.014227748 
-0.020342976 0.99973965 -0.01033948 
-0.004521252 0.9999828 -0.0037415917 
0.009066163 0.9999588 0.0005784784 
0.011741378 0.99992627 -0.0031075422 
0.009115716 0.99989146 -0.011575941 
0.01046723 0.9998477 -0.013971401 
0.013787444 0.9998723 -0.008089971 
0.011507788 0.9999231 -0.00463699 
0.009320102 0.99993455 -0.006642759 
0.013657329 0.999889 -0.0059623956 
0.017296031 0.9998454 -0.003176701 
0.017193923 0.99982715 -0.0070724296 
0.0197099 0.9996687 -0.016551565 
0.026075384 0.99943274 -0.021316595 
0.029666401 0.9993912 -0.018364258 
0.027372854 0.9995334 -0.013551 
0.022454284 0.9996851 -0.011200063 
0.015254675 0.9998354 -0.009836299 
0.0044414853 0.9999703 -0.0063027204 
-0.00666435 0.9999752 -0.0023159306 
-0.011917359 0.99992716 -0.0018991982 
-0.009437418 0.9999418 -0.00523155 
-0.0039241766 0.99995303 -0.008867351 
-0.00022106523 0.99994195 -0.010772867 
-0.007318859 0.99957144 0.02834441 
-0.009980818 0.9995607 0.027905839 
-0.013722003 0.99959594 0.024894059 
-0.015558517 0.9997379 0.01679759 
-0.015768414 0.9998691 0.003635438 
-0.016797684 0.9997961 -0.011209404 
-0.017909424 0.99956775 -0.023318078 
-0.0143016875 0.9994605 -0.02956482 
-0.0015237773 0.9995997 -0.028250141 
0.016567025 0.9996586 -0.020208877 
0.027576055 0.999554 -0.011467245 
0.025327455 0.9996303 -0.009897382 
0.017591966 0.99973506 -0.014849075 
0.014093832 0.999765 -0.016472066 
0.012955132 0.99983853 -0.012456384 
0.009045963 0.9999032 -0.010569596 
0.006700763 0.9999369 -0.009020105 
0.006836332 0.9999756 -0.0014659801 
0.003904865 0.9999803 0.004929264 
0.0019552526 0.9999971 0.0014570288 
0.008885695 0.999944 -0.005759396 
0.021746 0.999739 -0.007013084 
0.030130744 0.9995395 -0.0035982176 
0.030635735 0.99952847 -0.0020777844 
0.026938183 0.999625 -0.0049116015 
0.018867841 0.99977916 -0.009257822 
0.006502893 0.9999078 -0.01192959 
-0.0049339333 0.9998903 -0.013970658 
-0.009752298 0.9997883 -0.018118275 
-0.0076102195 0.99967015 -0.024530437 
-0.0032855244 0.9995452 -0.029978378 
-0.00046370752 0.9994597 -0.032864533 
-0.017478578 0.99950075 0.026319861 
-0.02085871 0.99939305 0.0279034 
-0.023202995 0.9993893 0.026127754 
-0.02091733 0.99962854 0.017472811 
-0.0162794 0.9998593 0.004057759 
-0.012722323 0.99986875 -0.010038343 
-0.008948677 0.9997086 -0.022419445 
-0.0010691035 0.999518 -0.031028427 
0.0126053225 0.9993835 -0.032769896 
0.027553387 0.9992567 -0.02696232 
0.033787087 0.99925333 -0.018741775 
0.027562927 0.9994969 -0.015693618 
0.017420197 0.9996675 -0.019011738 
0.012596807 0.99967784 -0.022036428 
0.011341684 0.99970806 -0.021337727 
0.008175141 0.9997963 -0.018459996 
0.003274623 0.9999347 -0.010954819 
-0.0036863112 0.9999932 9.810779e-05 
-0.011622731 0.99991894 0.0052058585 
-0.012325451 0.9999226 0.0017407195 
-0.001461858 0.99999845 -0.0009880911 
0.014169259 0.99989766 0.0019978052 
0.024118312 0.99969727 0.0048854086 
0.026330756 0.99965155 0.0018593059 
0.02409673 0.9996878 -0.00661332 
0.016554678 0.99974173 -0.015570803 
0.0049607772 0.999742 -0.022166539 
-0.005091893 0.99959797 -0.027891288 
-0.010004027 0.99932057 -0.03547531 
-0.011086527 0.998895 -0.045672044 
-0.011715724 0.9984308 -0.054760244 
-0.012608008 0.9981089 -0.060163934 
-0.023197042 0.9994768 0.022541711 
-0.025782911 0.999298 0.027181989 
-0.02552362 0.9992654 0.02859046 
-0.019705862 0.99956226 0.022069344 
-0.012396481 0.9998584 0.011385197 
-0.007712382 0.9999696 0.0012254802 
-0.0040473132 0.9999549 -0.008593751 
0.002413249 0.99982566 -0.018517729 
0.012739338 0.99959505 -0.025447402 
0.023266116 0.9993721 -0.026724167 
0.026501447 0.9993526 -0.024332138 
0.020756602 0.99952686 -0.022698713 
0.0139244255 0.99960464 -0.024427451 
0.012690049 0.9995345 -0.02774684 
0.013006497 0.999527 -0.027871583 
0.008249674 0.99972624 -0.021899072 
-0.0011785789 0.9999356 -0.011290119 
-0.012301989 0.99992067 -0.002731327 
-0.020417305 0.99979 -0.0017539221 
-0.019462394 0.9997994 -0.004739716 
-0.0096908435 0.9999464 -0.0036513426 
0.002376537 0.99999654 0.0011767027 
0.009942521 0.9999489 0.0018744513 
0.012585486 0.99990654 -0.0053544566 
0.012425331 0.9997858 -0.016556943 
0.008484842 0.9996458 -0.025222983 
0.0027974744 0.9995224 -0.030776206 
-0.00052183453 0.99930084 -0.037385795 
-0.0018931272 0.99877053 -0.049538355 
-0.0055692024 0.99762565 -0.068644285 
-0.013360491 0.9960008 -0.088339895 
-0.020618377 0.9946618 -0.10110867 
-0.023906885 0.9996791 0.008386159 
-0.02532385 0.999539 0.016746316 
-0.023175254 0.99946785 0.0229561 
-0.01609479 0.9996509 0.020953815 
-0.008706713 0.999848 0.015104761 
-0.005007137 0.9999342 0.010323525 
-0.0034450504 0.99998343 0.004612102 
-0.0001728094 0.99998724 -0.0050468105 
0.0068386155 0.99984145 -0.016446445 
0.015483979 0.99956775 -0.02499604 
0.019756177 0.99939674 -0.028563268 
0.018410642 0.999448 -0.027656507 
0.017022256 0.9995071 -0.026378386 
0.017862493 0.99946326 -0.027462583 
0.014538388 0.9995571 -0.025969064 
0.0040028556 0.9998242 -0.018314684 
-0.007953996 0.9999247 -0.009353154 
-0.01726623 0.99983436 -0.005774324 
-0.02183472 0.999733 -0.0075749657 
-0.019998895 0.9997573 -0.00923944 
-0.014128479 0.99987525 -0.007069595 
-0.007799818 0.9999597 -0.004455579 
-0.0034447392 0.9999627 -0.007925603 
-0.00010644253 0.99984246 -0.017750101 
0.003259117 0.9996197 -0.027385062 
0.0057320734 0.9994536 -0.03255346 
0.008806052 0.9992468 -0.03779559 
0.012804273 0.9986413 -0.050513316 
0.011373635 0.99698806 -0.076717764 
-0.00314428 0.99314886 -0.116813734 
-0.02814965 0.98704046 -0.15798332 
-0.047710463 0.9817909 -0.18387628 
-0.012331358 0.9997931 -0.016180616 
-0.012959692 0.9999075 -0.004132361 
-0.010715508 0.9999159 0.0073060007 
-0.005394199 0.99992937 0.010596898 
-0.0009031034 0.9999532 0.00963849 
-7.7835095e-05 0.9999559 0.009401722 
-0.0014439558 0.9999679 0.007886856 
-0.0011434127 0.9999989 0.0008840335 
0.0044808867 0.99993265 -0.010705541 
0.014678751 0.99965525 -0.021769434 
0.023263887 0.9993549 -0.027360557 
0.027320826 0.99930936 -0.025188264 
0.028961 0.9993751 -0.020263793 
0.02620442 0.9994904 -0.01823298 
0.013721278 0.9997799 -0.015875671 
-0.0033892512 0.9999406 -0.010361051 
-0.014539695 0.99987566 -0.0061090346 
-0.018846536 0.9998007 -0.0065864306 
-0.018921424 0.9997846 -0.008530491 
-0.016382514 0.99982893 -0.008585037 
-0.013779776 0.9998714 -0.008206983 
-0.01164636 0.99987006 -0.011146856 
-0.008990641 0.9997667 -0.019644024 
-0.0040933136 0.99954724 -0.029811861 
0.002536041 0.9993681 -0.035456393 
0.009091665 0.9992117 -0.038642533 
0.014588921 0.99867845 -0.049282055 
0.013477927 0.99703395 -0.07577444 
-0.007257414 0.992307 -0.12358853 
-0.05614542 0.98036575 -0.18902576 
-0.11824047 0.9608359 -0.2506266 
-0.15777658 0.94499916 -0.28650147 
0.0027983575 0.99945796 -0.03280427 
0.0025545354 0.9998108 -0.019285167 
0.0035650013 0.999976 -0.0059586964 
0.005532449 0.9999843 -0.00092535524 
0.0065638977 0.99997807 -0.00090483663 
0.005440927 0.9999848 -0.0008650474 
0.0026130616 0.999996 -0.0010746288 
0.0010375717 0.9999887 -0.0046445965 
0.005988236 0.99991184 -0.011856399 
0.018160457 0.9996474 -0.019376215 
0.030640922 0.9992818 -0.022293556 
0.03815844 0.99912405 -0.01718133 
0.039719302 0.99917316 -0.008685953 
0.031351183 0.99950254 -0.0034644194 
0.011850929 0.9999296 -0.0007098046 
-0.0068182177 0.9999756 0.0015027003 
-0.0137496125 0.9999053 0.00072766177 
-0.0125529505 0.99991584 -0.0032746058 
-0.009504619 0.999938 -0.0058080647 
-0.00743743 0.9999516 -0.0064518773 
-0.007136587 0.9999228 -0.0101821665 
-0.006849213 0.9997897 -0.019332703 
-0.004540633 0.99949604 -0.031417474 
0.0003594909 0.99920756 -0.03980271 
0.0055806017 0.99911684 -0.04164734 
0.008270204 0.9988989 -0.046180204 
0.0036614258 0.9978372 -0.06563264 
-0.020719562 0.99413437 -0.10614941 
-0.08404275 0.9818902 -0.16978978 
-0.1917026 0.9501196 -0.24601394 
-0.30835906 0.8998942 -0.30839133 
-0.37330398 0.86236066 -0.34202093 
0.004369805 0.99936634 -0.03532462 
0.004408914 0.99970704 -0.023803089 
0.004522783 0.99989915 -0.01346233 
0.004934456 0.99992305 -0.011380534 
0.0062408764 0.9998714 -0.014779976 
0.007711911 0.9997955 -0.018693123 
0.0069034435 0.9997657 -0.020518629 
0.004823648 0.9997767 -0.020575449 
0.008193215 0.999754 -0.020612707 
0.01952544 0.9995791 -0.021457056 
0.031897392 0.9992819 -0.02045493 
0.038887657 0.9991532 -0.013444325 
0.038490467 0.9992552 -0.0027531404 
0.027403947 0.99960524 0.006207355 
0.008057907 0.99989307 0.0122043835 
-0.005907402 0.9998729 0.014809343 
-0.006459602 0.9999118 0.011608837 
-0.0005592317 0.9999893 0.0046040597 
0.0035128407 0.99999386 0.00021739407 
0.0044181827 0.99998796 -0.0021650854 
0.0051151463 0.99994767 -0.008869954 
0.007710373 0.99974275 -0.02133336 
0.011209335 0.99934435 -0.034429654 
0.01297978 0.9990789 -0.040900093 
0.010667324 0.99905556 -0.042121995 
0.0016787383 0.99867135 -0.051503997 
-0.022718964 0.9965905 -0.079317205 
-0.08152204 0.988657 -0.12614064 
-0.19790357 0.9623505 -0.18632185 
-0.37084252 0.8968828 -0.24099194 
-0.5444946 0.79477274 -0.2680707 
-0.639327 0.7169681 -0.27788082 
-0.0033788844 0.9994937 -0.031637624 
-0.0036875 0.9997028 -0.024101835 
-0.0045719543 0.99981815 -0.018511863 
-0.0041947104 0.9997963 -0.019745652 
0.00012393 0.9996607 -0.026049703 
0.006483126 0.99942195 -0.03337315 
0.008755895 0.99928826 -0.036692593 
0.0063504265 0.99941427 -0.033627704 
0.00722719 0.99958974 -0.027715841 
0.015325601 0.9995818 -0.02452536 
0.02425858 0.99942404 -0.023731768 
0.027892653 0.9994154 -0.019771248 
0.025017098 0.9996277 -0.010896522 
0.014429102 0.99989545 0.000981724 
0.0010128381 0.9999093 0.013438105 
-0.0035413073 0.99976164 0.021547437 
0.0036534315 0.9997867 0.02032775 
0.012296603 0.9998302 0.0137335425 
0.014401788 0.99984604 0.010032415 
0.0140936095 0.99986744 0.008164375 
0.01895714 0.9998196 0.0012519071 
0.028082727 0.9995283 -0.0124341 
0.03359078 0.9990742 -0.02687911 
0.02949043 0.9989487 -0.03509625 
0.015636189 0.9990409 -0.04090185 
-0.009239604 0.99834967 -0.056680888 
-0.055979922 0.9946688 -0.08660502 
-0.14544122 0.9816718 -0.12315573 
-0.29839697 0.9424249 -0.1509788 
-0.50602764 0.8500728 -0.1459874 
-0.70409846 0.70312065 -0.09933208 
-0.81357765 0.57884103 -0.0550871 
-0.005504155 0.9997719 -0.020640332 
-0.0076817977 0.9998262 -0.016987892 
-0.011424368 0.99982125 -0.015062438 
-0.0126221515 0.99976546 -0.01760335 
-0.0074085346 0.9996718 -0.02452419 
0.00031229403 0.99944717 -0.0332444 
0.002086982 0.9992939 -0.037514083 
-0.0023660727 0.999442 -0.03332056 
-0.0038020923 0.9996645 -0.025622904 
0.002233401 0.99972594 -0.023306394 
0.009443062 0.99957377 -0.02762705 
0.011827323 0.99942684 -0.031719487 
0.0088522425 0.999537 -0.029109964 
0.0021634519 0.9998577 -0.016733794 
-0.0011347857 0.9999969 0.0022290777 
0.0060058404 0.99983644 0.017062321 
0.01856703 0.9996248 0.020141436 
0.023964977 0.9995572 0.017639864 
0.019816885 0.999644 0.01786437 
0.018710976 0.9996547 0.018452065 
0.029716214 0.9994805 0.012485142 
0.044721834 0.99899685 -0.0022918754 
0.048652314 0.9986265 -0.019446362 
0.035488036 0.99886024 -0.03191904 
0.009373143 0.99901885 -0.04328455 
-0.028985027 0.9976933 -0.06138436 
-0.088880725 0.9925019 -0.08390612 
-0.18603507 0.9776744 -0.09769227 
-0.33261514 0.9393441 -0.083665535 
-0.51635313 0.8561077 -0.021425731 
-0.68669844 0.7220939 0.083819725 
-0.7825628 0.5983967 0.17180513 
-0.0028485828 0.99999523 -0.0011933459 
-0.00726144 0.99997354 -0.0005298549 
-0.014124076 0.9998991 -0.001567904 
-0.01764975 0.99982715 -0.0058417195 
-0.01402718 0.9998019 -0.0141215 
-0.008909082 0.999666 -0.024260378 
-0.01078845 0.9994987 -0.029767556 
-0.017998023 0.9994877 -0.026467081 
-0.020332059 0.99959344 -0.019990794 
-0.013906276 0.99969786 -0.020268532 
-0.005471599 0.9995528 -0.029399114 
-0.0013674417 0.99918795 -0.040268924 
-0.0019013182 0.9990567 -0.04338491 
-0.00266916 0.999488 -0.03188697 
0.004132705 0.9999446 -0.009682241 
0.019538604 0.999775 0.008261687 
0.03176761 0.9994001 0.013801152 
0.03020023 0.99943966 0.0144344065 
0.021309933 0.9996251 0.017196175 
0.022489086 0.99955297 0.019705173 
0.03857998 0.9991288 0.015916605 
0.054268364 0.9985237 0.0022992464 
0.052094154 0.9985176 -0.015777085 
0.030000113 0.9990523 -0.031537116 
-0.0038834068 0.99888897 -0.046966866 
-0.047914073 0.9967208 -0.065208025 
-0.10819746 0.9909201 -0.079817295 
-0.19316444 0.97812593 -0.07718262 
-0.3083356 0.950336 -0.042318456 
-0.44453472 0.89497346 0.037570924 
-0.57060593 0.80716753 0.15129289 
-0.64572835 0.72377706 0.24327295 
-0.0031597954 0.9999118 0.012902118 
-0.008277384 0.9998992 0.011540746 
-0.01586444 0.9998428 0.0079305405 
-0.019744383 0.99980456 0.0010077602 
-0.016704563 0.99981487 -0.009544737 
-0.013329307 0.9996952 -0.02078062 
-0.01728372 0.9994993 -0.026505824 
-0.025314987 0.9994009 -0.023599362 
-0.027363243 0.99946886 -0.0177033 
-0.02072726 0.99962604 -0.017842183 
-0.012246945 0.9995764 -0.026401788 