# OOMMF OVF 2.0
# Segment count: 1
# Begin: Segment
# Begin: Header
# Title: m
# meshtype: rectangular
# meshunit: m
# xmin: 0
# ymin: 0
# zmin: 0
# xmax: 1.6e-07
# ymax: 1.6e-07
# zmax: 5e-09
# valuedim: 3
# valuelabels: m_x m_y m_z
# valueunits: 1 1 1
# Desc: Total simulation time:  3.125363659407475e-11  s
# xbase: 2.5e-09
# ybase: 2.5e-09
# zbase: 2.5e-09
# xnodes: 32
# ynodes: 32
# znodes: 1
# xstepsize: 5e-09
# ystepsize: 5e-09
# zstepsize: 5e-09
# End: Header
# Begin: Data Text
-0.76268244 0.5051551 -0.40389836 
-0.6912206 0.6410006 -0.3336652 
-0.54310286 0.8020159 -0.24861547 
-0.38562664 0.90621156 -0.17341505 
-0.2703234 0.9542721 -0.12763236 
-0.20855841 0.9713158 -0.11423246 
-0.18819772 0.9747521 -0.12016645 
-0.19165947 0.9733521 -0.12590644 
-0.19133723 0.9724652 -0.13304715 
-0.15518664 0.9774304 -0.14334224 
-0.080274455 0.9843089 -0.1571374 
0.022500904 0.9876634 -0.15496731 
0.10288783 0.9892961 -0.10347701 
0.104139216 0.99385935 -0.037400663 
0.045322474 0.9987238 -0.022286773 
-0.005667929 0.99848425 -0.05474503 
-0.016671157 0.9965503 -0.081299685 
-0.0058461716 0.9968429 -0.07918433 
0.0042235446 0.99774384 -0.067003824 
0.010412869 0.9980879 -0.060927708 
0.0066692405 0.99862903 -0.05191906 
-0.021447498 0.9991738 -0.034523796 
-0.060164034 0.99793667 -0.022423329 
-0.077418864 0.9967427 -0.022592079 
-0.06809565 0.99732035 -0.026744679 
-0.04950154 0.99838054 -0.028035551 
-0.034033284 0.99907774 -0.026184 
-0.020103684 0.99966174 -0.016503107 
-0.00495311 0.999961 0.007308643 
-0.0026351193 0.99957067 0.029184593 
-0.024926849 0.99941236 0.023530627 
-0.05454568 0.9985088 0.0022422126 
-0.71508515 0.64791757 -0.2624046 
-0.6391867 0.73518085 -0.22572005 
-0.49988815 0.8470361 -0.1806699 
-0.3556519 0.9244217 -0.13768199 
-0.24773751 0.96240354 -0.11138069 
-0.18477796 0.976915 -0.10721086 
-0.15695092 0.98105276 -0.11358696 
-0.15236442 0.9817537 -0.11377453 
-0.14906804 0.98241544 -0.11242143 
-0.11927624 0.9861387 -0.115341455 
-0.05922015 0.99055046 -0.12370452 
0.020482471 0.99237597 -0.12153347 
0.08081004 0.993149 -0.084409736 
0.082285985 0.9959152 -0.037177928 
0.038109273 0.9989452 -0.02561936 
-0.0036179337 0.9988119 -0.048597272 
-0.015756102 0.9975176 -0.068633504 
-0.008292045 0.99766654 -0.067770444 
0.0011334212 0.99826247 -0.05891266 
0.0077386927 0.99848986 -0.05438838 
0.004658347 0.99891526 -0.04633262 
-0.020399675 0.9993316 -0.030335946 
-0.055024803 0.9983175 -0.018293738 
-0.07115657 0.99732876 -0.016499422 
-0.06366401 0.9977945 -0.018792657 
-0.046769466 0.998711 -0.019722223 
-0.031433184 0.9993325 -0.01861896 
-0.017292961 0.9997904 -0.010962112 
-0.0022857308 0.9999586 0.008806187 
0.0022733763 0.9996379 0.026814224 
-0.012708163 0.9996912 0.021354945 
-0.032025125 0.9994833 0.002750275 
-0.6457442 0.7596615 -0.076999925 
-0.57279927 0.8152506 -0.08524943 
-0.4495021 0.88827497 -0.09442198 
-0.32164866 0.9418834 -0.09694318 
-0.21890995 0.970725 -0.098850414 
-0.14935367 0.98314685 -0.10543136 
-0.11018537 0.9879788 -0.10842995 
-0.09657256 0.9903641 -0.09926163 
-0.09085789 0.9920082 -0.087547384 
-0.07022794 0.99412686 -0.08233926 
-0.030335972 0.9959101 -0.08510512 
0.018838823 0.99624 -0.084564194 
0.053757813 0.9963026 -0.06701616 
0.05591207 0.9975164 -0.04283662 
0.028698683 0.99901307 -0.033901643 
-0.004376387 0.9990305 -0.043808408 
-0.020465408 0.99828136 -0.054914292 
-0.017873589 0.9983786 -0.054043766 
-0.008258483 0.9988766 -0.0466642 
0.0007506909 0.9991375 -0.041517276 
0.00074262224 0.99944943 -0.03317302 
-0.01844326 0.99965984 -0.01844227 
-0.046125032 0.9989123 -0.006845527 
-0.058893986 0.99825704 -0.0037893842 
-0.051887773 0.9986382 -0.0054394584 
-0.03601827 0.9993216 -0.007691045 
-0.02066456 0.9997444 -0.009179995 
-0.0066143363 0.9999643 -0.0052586664 
0.0076646693 0.9999294 0.009075125 
0.013836354 0.999654 0.022370312 
0.0050563924 0.9998468 0.016758509 
-0.0075344453 0.99997145 0.0007305436 
-0.65288764 0.7534094 0.07817984 
-0.56930566 0.821648 0.028029041 
-0.43763074 0.8986065 -0.031396482 
-0.3032934 0.9499957 -0.07430573 
-0.19066447 0.9766813 -0.098695606 
-0.10763754 0.9882337 -0.10866687 
-0.057977628 0.9931153 -0.10178752 
-0.039418157 0.9959033 -0.081381455 
-0.034929946 0.99754834 -0.06064094 
-0.025596002 0.9984534 -0.04935362 
-0.0071479892 0.998815 -0.048141744 
0.01170178 0.9985224 -0.05306737 
0.026516207 0.9979389 -0.058438573 
0.035119966 0.99788415 -0.054717064 
0.024201747 0.99874645 -0.043816634 
-0.004994308 0.9991796 -0.040190928 
-0.027678996 0.99863183 -0.044367533 
-0.029284118 0.99862754 -0.043422095 
-0.01808933 0.99921775 -0.03516784 
-0.005898308 0.9996109 -0.02726087 
-0.002442528 0.9998322 -0.018153833 
-0.015764948 0.99986106 -0.0054270294 
-0.03670029 0.9993166 0.00441683 
-0.04615834 0.9989081 0.0072165458 
-0.039867762 0.999191 0.0052823233 
-0.026193395 0.99965525 0.0018072419 
-0.012972551 0.99991477 -0.001532675 
-0.001182914 0.9999992 -0.0004032901 
0.010631904 0.99989563 0.009787336 
0.016505497 0.9996648 0.019945018 
0.011360091 0.99982184 0.015077146 
0.0030738513 0.9999938 0.0017580971 
-0.6859332 0.6721615 0.27873766 
-0.5948595 0.7842949 0.17613551 
-0.4484032 0.8921588 0.05465654 
-0.29935166 0.9535136 -0.03464896 
-0.17286308 0.98132175 -0.0844163 
-0.07782916 0.99183786 -0.10099737 
-0.02092957 0.9956733 -0.09053528 
0.0016844397 0.99785817 -0.06539289 
0.0053355643 0.9992252 -0.038993523 
0.003936892 0.9997379 -0.022554012 
0.00239961 0.99980795 -0.01944834 
-0.0014322506 0.99947387 -0.03240249 
0.0042929654 0.9984458 -0.055565786 
0.022340083 0.99777764 -0.062776074 
0.023437526 0.9985881 -0.04767072 
-0.0031281016 0.9993468 -0.036002718 
-0.027906096 0.99887 -0.038471464 
-0.028905237 0.99881 -0.039282024 
-0.015315098 0.9994121 -0.030673273 
-0.0029524912 0.9997773 -0.020897383 
-0.0009723752 0.9999229 -0.0123870615 
-0.013858796 0.9999002 -0.0027503024 
-0.032577015 0.99945736 0.0048860065 
-0.041561525 0.9991073 0.007569782 
-0.037660856 0.99926907 0.00656041 
-0.027997386 0.99959874 0.00430671 
-0.019087108 0.9998155 0.0021670987 
-0.0111386785 0.9999322 0.0033929239 
-0.002502174 0.99992263 0.012190471 
0.0022024394 0.9997626 0.021679522 
-0.0008630586 0.99982184 0.018857652 
-0.0060417172 0.9999455 0.008512758 
-0.7336377 0.5115571 0.44730872 
-0.65048724 0.6963858 0.30317196 
-0.49066934 0.86192405 0.12779124 
-0.3201178 0.9473777 -0.00043266622 
-0.17423989 0.9822158 -0.06994727 
-0.06460253 0.9936729 -0.09187393 
0.0014075054 0.99682015 -0.07967185 
0.029092163 0.99828964 -0.050710723 
0.029715382 0.99937326 -0.0192373 
0.0156140365 0.99987704 -0.0014627804 
-0.002503715 0.99999523 -0.0018113364 
-0.019553266 0.99954224 -0.023088453 
-0.014341116 0.9983315 -0.05593415 
0.013844092 0.9978346 -0.06429911 
0.023263985 0.99883467 -0.04228535 
-6.0420673e-05 0.9996403 -0.026821146 
-0.02108912 0.99923503 -0.032934938 
-0.01679161 0.99909645 -0.039042246 
-0.0011173453 0.99948585 -0.032043666 
0.0076379944 0.9997464 -0.021187112 
0.0035120212 0.999909 -0.013029504 
-0.012877222 0.9999008 -0.005718852 
-0.031479266 0.9995044 0.00033581644 
-0.039897285 0.99919873 0.003200124 
-0.03715496 0.99930394 0.0033462679 
-0.030579383 0.9995289 0.0026584829 
-0.025573533 0.9996708 0.002084612 
-0.021008905 0.9997725 0.0036936954 
-0.015108399 0.9998192 0.011541119 
-0.011981753 0.99971104 0.02084004 
-0.014349033 0.9996933 0.020186733 
-0.017697966 0.9997627 0.012704827 
-0.7322262 0.4511497 0.5102046 
-0.665803 0.6572707 0.35313123 
-0.51047105 0.84530073 0.15775336 
-0.332986 0.94282305 0.0143196285 
-0.17712426 0.9822693 -0.061433364 
-0.058318265 0.99491984 -0.082058005 
0.014300442 0.9977455 -0.06556995 
0.044458035 0.99850345 -0.031849943 
0.038768675 0.999248 0.000630481 
0.014371711 0.9998152 0.01276695 
-0.012797708 0.99990064 0.0059085004 
-0.0343333 0.9991965 -0.020679396 
-0.025133373 0.9982311 -0.05387944 
0.007859563 0.9984813 -0.054528542 
0.017220652 0.9995077 -0.02622502 
-0.0036591596 0.9998937 -0.014113649 
-0.016351845 0.9994544 -0.02869811 
-0.004633347 0.9991833 -0.040142283 
0.011897021 0.99939764 -0.032600544 
0.016138852 0.9996977 -0.018550672 
0.0070106946 0.99993116 -0.009415723 
-0.0103160385 0.99993795 -0.0042105406 
-0.0256229 0.9996716 -0.0004743052 
-0.030232321 0.9995419 0.0014626174 
-0.025972528 0.99966174 0.0013491212 
-0.020636747 0.999787 0.00047207047 
-0.018235585 0.99983376 -0.00033590986 
-0.016177483 0.9998692 0.00017319339 
-0.012744197 0.99990124 0.005924997 
-0.011844349 0.9998322 0.013976431 
-0.014982188 0.99977905 0.014749341 
-0.017975919 0.99979043 0.009797845 
-0.6649963 0.61163396 0.42858347 
-0.60001427 0.74455506 0.2926103 
-0.46316823 0.87716067 0.12674545 
-0.30393907 0.952683 0.0040193554 
-0.15859899 0.9856361 -0.058034506 
-0.045023367 0.9967097 -0.06739905 
0.02436395 0.9987808 -0.04293607 
0.049356215 0.99876267 -0.0061023766 
0.0359786 0.9991383 0.020695774 
0.0070139645 0.9996948 0.023690198 
-0.02241981 0.9996901 0.010814559 
-0.04126774 0.99898577 -0.018012403 
-0.026622012 0.9986748 -0.04404494 
0.0028108514 0.9994239 -0.03382254 
0.004789344 0.9999695 -0.006170402 
-0.013852671 0.9998905 -0.005221493 
-0.017679716 0.9994379 -0.02848286 
-0.0009493473 0.99919856 -0.04001838 
0.015019632 0.9995094 -0.027483335 
0.01746046 0.99980575 -0.009140227 
0.008787225 0.9999615 3.4870518e-05 
-0.004318015 0.9999894 0.0015924844 
-0.013302141 0.9999103 0.001592256 
-0.0128970435 0.99991524 0.0018078681 
-0.006684083 0.9999773 0.00086685084 
-0.0020005908 0.99999756 -0.0010022239 
-0.0012000047 0.999995 -0.0029460464 
-0.000716553 0.99999106 -0.004181564 
0.00072213373 0.99999887 -0.0013470958 
-0.0006962249 0.999992 0.00393882 
-0.005347769 0.999975 0.0046234997 
-0.008948467 0.99995923 0.0012992538 
-0.50077695 0.8193184 0.27917737 
-0.4558465 0.86913115 0.19187304 
-0.3609277 0.9291396 0.080192 
-0.24361697 0.9698461 -0.00701531 
-0.1280675 0.9904915 -0.050254136 
-0.03302652 0.9981913 -0.05023296 
0.025415368 0.9994276 -0.022328256 
0.042786933 0.999011 0.012102996 
0.027003318 0.99915916 0.030852694 
0.0009931222 0.99960095 0.028229779 
-0.023374986 0.99962825 0.014033366 
-0.034149885 0.9993722 -0.009432882 
-0.01901281 0.999568 -0.022412783 
-0.001958412 0.9999689 -0.0076420745 
-0.009022908 0.99993014 0.007640283 
-0.024816696 0.99967396 -0.006021289 
-0.023159893 0.9992221 -0.03192171 
-0.0051349252 0.9993267 -0.03632915 
0.010584528 0.9998098 -0.016383229 
0.014678005 0.9998827 0.0043927273 
0.0105115725 0.99988604 0.01083943 
0.0041984785 0.999966 0.0070942794 
0.0016279387 0.9999941 0.0030309402 
0.0055206507 0.9999831 0.0018502504 
0.012293846 0.9999245 9.942079e-05 
0.016261438 0.9998615 -0.0035558448 
0.016226912 0.9998381 -0.0077779447 
0.01533664 0.99981743 -0.011402095 
0.0139625 0.9998272 -0.012273087 
0.008942085 0.9998934 -0.01153839 
0.0014318438 0.9999131 -0.013108664 
-0.003701358 0.9998611 -0.016252888 
-0.3319108 0.932283 0.14381793 
-0.30996186 0.9456294 0.09853285 
-0.25556672 0.9661968 0.03390561 
-0.1787458 0.9836538 -0.021800335 
-0.09359912 0.99438685 -0.049335737 
-0.018905476 0.9989105 -0.042668495 
0.02592479 0.99958146 -0.012837378 
0.03536315 0.99919707 0.018830767 
0.019694647 0.9992605 0.033023436 
-0.0012619211 0.9995697 0.029304374 
-0.018172983 0.9996741 0.017931964 
-0.0225381 0.9997399 0.0035237332 
-0.011601695 0.9999326 -0.00062948046 
-0.005650201 0.99994 0.009391392 
-0.017744076 0.9997932 0.009944673 
-0.031329002 0.99944395 -0.011421702 
-0.026492216 0.9991668 -0.031047957 
-0.006843278 0.9996715 -0.02469756 
0.009804303 0.9999519 -0.00047664496 
0.015959939 0.99973434 0.016630886 
0.016303966 0.999739 0.016006297 
0.015419238 0.9998619 0.0062013897 
0.015594589 0.99987817 -0.0007946061 
0.018240385 0.9998295 -0.002884068 
0.02204091 0.99973726 -0.0062993322 
0.023731243 0.99963033 -0.013268312 
0.021864759 0.99955 -0.020538855 
0.017649213 0.99952215 -0.025379045 
0.010483471 0.9995602 -0.027742816 
-0.0010896141 0.99955124 -0.029937716 
-0.013537724 0.9993503 -0.033401217 
-0.020966146 0.9991115 -0.036561847 
-0.21124573 0.97543114 0.06252567 
-0.20186974 0.9785398 0.041333713 
-0.17288704 0.9849227 0.006114337 
-0.12456585 0.99180853 -0.028271455 
-0.06418394 0.9969255 -0.04494598 
-0.009802111 0.9993598 -0.03441075 
0.019576326 0.9997902 -0.00602138 
0.021442272 0.99957037 0.019984761 
0.007284591 0.99956644 0.028529879 
-0.0070228903 0.9997107 0.023010384 
-0.015429022 0.9997744 0.014601368 
-0.014244674 0.9998667 0.007984226 
-0.0065012956 0.9999363 0.009231638 
-0.008189221 0.99985963 0.014618542 
-0.022650007 0.9997179 0.007162137 
-0.03099484 0.9994462 -0.012112379 
-0.018750636 0.9996298 -0.019714555 
0.004373425 0.9999763 -0.005316816 
0.019942915 0.9996936 0.014664366 
0.024896191 0.99948806 0.020098574 
0.026465168 0.9996073 0.009212665 
0.026330143 0.9996403 -0.0051206085 
0.022930263 0.9996629 -0.012180116 
0.018312309 0.99973816 -0.013725579 
0.015134829 0.99971443 -0.018493142 
0.012338437 0.9995314 -0.028015677 
0.007019501 0.9993444 -0.03551944 
-0.002067889 0.99934036 -0.036259487 
-0.016105378 0.9993079 -0.033532273 
-0.034357797 0.9988691 -0.032865304 
-0.05111266 0.9980853 -0.034831747 
-0.05995555 0.9975239 -0.036760297 
-0.15814602 0.98724425 0.018403422 
-0.1516228 0.98840487 0.0081565995 
-0.13175488 0.9912031 -0.012529366 
-0.096696265 0.99472046 -0.034368716 
-0.051177178 0.99780583 -0.042007077 
-0.012625399 0.99954903 -0.027248645 
0.00428698 0.9999894 -0.0017033254 
0.0021445972 0.9998586 0.01667817 
-0.007721444 0.9997934 0.018804653 
-0.014509788 0.9998296 0.011417476 
-0.015705632 0.9998655 0.0047536697 
-0.010610121 0.9999418 0.001975284 
-0.005143724 0.99997413 0.0050284676 
-0.010997312 0.99990827 0.007912582 
-0.023103638 0.9997326 0.0010319954 
-0.02197507 0.9997277 -0.007855647 
-0.0017251424 0.9999938 -0.003092102 
0.021299671 0.9996912 0.012804702 
0.03175257 0.99924934 0.022195308 
0.033334076 0.9993399 0.014444638 
0.034365363 0.99940336 -0.0034620278 
0.032076355 0.99933726 -0.01721384 
0.022121632 0.99954236 -0.020635372 
0.008544611 0.9997572 -0.020314163 
-0.002528592 0.9996746 -0.025384711 
-0.01058559 0.9993566 -0.03426787 
-0.01915253 0.99914825 -0.03655151 
-0.030964123 0.9991428 -0.027476003 
-0.047647394 0.9987526 -0.014935696 
-0.0673351 0.99769646 -0.00824124 
-0.08393547 0.99644303 -0.007492942 
-0.091847 0.9957401 -0.008114186 
-0.1315067 0.99092823 -0.027701985 
-0.1220261 0.99203974 -0.031094007 
-0.1021047 0.99401057 -0.0389575 
-0.07415959 0.9962688 -0.044146527 
-0.043528877 0.9983765 -0.03674006 
-0.022938257 0.9996001 -0.01653521 
-0.01732172 0.99984586 0.0028669417 
-0.019554937 0.99974877 0.010957965 
-0.021787932 0.9997412 0.006550696 
-0.019844187 0.99979997 -0.0025299392 
-0.014356821 0.99984974 -0.00972376 
-0.0056476523 0.99990374 -0.012673107 
-0.001483559 0.9999577 -0.009078135 
-0.010083587 0.99993783 -0.0047628973 
-0.019282667 0.9997991 -0.0054801176 
-0.010775751 0.9999368 -0.0031943948 
0.012421941 0.99988556 0.008641318 
0.03065496 0.9993098 0.020981796 
0.034535363 0.9991883 0.020741148 
0.033154055 0.99943155 0.0061268755 
0.03343324 0.9993763 -0.0113693625 
0.028923906 0.9993937 -0.019385967 
0.014422019 0.999746 -0.017317744 
-0.005007934 0.9998788 -0.014743131 
-0.021905867 0.9996017 -0.017796246 
-0.03352014 0.99922353 -0.020709923 
-0.041700885 0.99904925 -0.012716861 
-0.050190076 0.99871266 0.0073551284 
-0.062040843 0.9976975 0.027399318 
-0.07601815 0.9964353 0.03657721 
-0.087447636 0.9954889 0.036809456 
-0.092379846 0.9950866 0.03561949 
-0.08486462 0.99467695 -0.05844405 
-0.07567994 0.9955705 -0.055785432 
-0.062762864 0.9967119 -0.051248055 
-0.051757548 0.99777925 -0.04192544 
-0.04369342 0.99869317 -0.026513038 
-0.040316876 0.9991309 -0.010587186 
-0.038227707 0.99926656 -0.002266144 
-0.03297308 0.9994537 -0.0022483415 
-0.024217073 0.99967843 -0.0075338767 
-0.014413584 0.9997991 -0.013937213 
-0.005540518 0.9997838 -0.020042352 
0.002376187 0.99973494 -0.02289905 
0.002133623 0.99980825 -0.019467179 
-0.008249745 0.9998579 -0.014703527 
-0.012599316 0.9998641 -0.010638221 
0.0008767737 0.99999756 -0.00202267 
0.021647345 0.99972147 0.009405613 
0.03154659 0.9993933 0.014764606 
0.027720856 0.99957746 0.008747568 
0.022246437 0.99974 -0.0050108125 
0.020189118 0.9996812 -0.015169122 
0.013794183 0.9998103 -0.013758115 
-0.0019800994 0.99998575 -0.004972621 
-0.022998465 0.99973315 0.0021709278 
-0.041403778 0.9991192 0.006827539 
-0.050729234 0.9985807 0.016224865 
-0.050937384 0.99805367 0.035976883 
-0.048348278 0.99690247 0.062032234 
-0.048479464 0.9954841 0.081615716 
-0.05141326 0.99492675 0.08647258 
-0.05440115 0.9951409 0.0820674 
-0.055306565 0.99538004 0.078484066 
-0.030240934 0.9981713 -0.052340135 
-0.026385378 0.99843615 -0.049286947 
-0.02651479 0.9987194 -0.043087825 
-0.033414245 0.9988822 -0.03343555 
-0.0404338 0.99891835 -0.022960052 
-0.041606136 0.9990124 -0.015596315 
-0.034656405 0.99932635 -0.012071617 
-0.02289979 0.99968934 -0.009847631 
-0.011458756 0.99989396 -0.008984842 
-0.0034710148 0.99993265 -0.011082628 
0.0013342618 0.9998561 -0.016910583 
0.0045190863 0.9997492 -0.021934275 
0.0021995022 0.9997606 -0.021772495 
-0.0041846675 0.99982965 -0.01797991 
-0.0027227185 0.99993163 -0.011381591 
0.010889149 0.99993557 -0.0032151747 
0.024637125 0.99969584 0.001129052 
0.024549065 0.9996981 -0.0010732072 
0.012697168 0.9998849 -0.008314882 
0.0024078875 0.99987346 -0.015726304 
-0.0027203683 0.9998786 -0.015345026 
-0.009814603 0.9999426 -0.004293795 
-0.02288327 0.9996718 0.011523542 
-0.039081324 0.998868 0.02711932 
-0.050236873 0.9977242 0.04497513 
-0.047640882 0.9965569 0.067858756 
-0.032377418 0.9950911 0.09351727 
-0.014327463 0.9931723 0.11577405 
-0.0003959195 0.99202275 0.12605873 
0.008855439 0.9925486 0.12152766 
0.01463506 0.9937325 0.11082185 
0.017364392 0.99436396 0.10458939 
0.008341906 0.9995584 -0.028524004 
0.00737963 0.9995236 -0.029971046 
0.00029403475 0.99955565 -0.029808102 
-0.01116182 0.9995959 -0.026147401 
-0.017928695 0.9996227 -0.020810384 
-0.015688004 0.9997635 -0.015066831 
-0.0076092016 0.9999375 -0.008208325 
-0.00059151574 0.9999994 -0.0009708017 
0.0028877824 0.9999924 0.002646494 
0.0041661747 0.9999912 0.0006344919 
0.004923273 0.9999671 -0.0064429566 
0.006279971 0.9998942 -0.0131280245 
0.0047144783 0.99988097 -0.014693885 
0.00128286 0.99992687 -0.012029678 
0.0041413396 0.99996775 -0.0068803756 
0.013999654 0.9998977 -0.0029541838 
0.019046351 0.99980795 -0.00462675 
0.009252369 0.99990207 -0.010504178 
-0.008800103 0.999824 -0.01656985 
-0.02172562 0.99959296 -0.018493166 
-0.027730197 0.9995511 -0.01134062 
-0.03214101 0.9994698 0.00520322 
-0.036772933 0.99895865 0.027008824 
-0.039411552 0.9978273 0.052797493 
-0.033051465 0.9960058 0.082946084 
-0.011345993 0.9936213 0.112196706 
0.020840548 0.99086064 0.13327013 
0.052193873 0.98839253 0.14267479 
0.07732287 0.9873319 0.13855284 
0.09641904 0.9876434 0.123547375 
0.1093254 0.98816437 0.107606925 
0.11463995 0.98839647 0.09965054 
0.025526924 0.999641 -0.008146866 
0.022041991 0.9996739 -0.012897245 
0.014700498 0.99975526 -0.016532997 
0.007887538 0.9998499 -0.015428826 
0.0072992234 0.99991786 -0.010542311 
0.012051511 0.99992085 -0.003620389 
0.016232392 0.9998591 0.00427949 
0.01519952 0.9998366 0.00979279 
0.012567899 0.9998635 0.010732583 
0.011809563 0.9998969 0.008172635 
0.012985825 0.99991256 0.0025340412 
0.013943934 0.99989974 -0.0024693485 
0.01122775 0.99992436 -0.0050245007 
0.008640616 0.99995095 -0.0048504653 
0.011110513 0.9999382 -0.00037261183 
0.014043643 0.9998951 0.003542164 
0.0073530427 0.9999728 0.0005176542 
-0.011932746 0.9999037 -0.00708756 
-0.033198953 0.999361 -0.013246281 
-0.045822054 0.9988653 -0.012979935 
-0.050263967 0.9987313 -0.0030674962 
-0.048455443 0.9987073 0.015358653 
-0.039181467 0.99842227 0.040223315 
-0.0214472 0.9971991 0.07165135 
0.0076714223 0.994406 0.10534708 
0.04862813 0.99030775 0.13010024 
0.093510024 0.9859451 0.13844927 
0.13311577 0.9823205 0.13163094 
0.16518657 0.9797355 0.11327734 
0.19046669 0.977607 0.08948215 
0.20736414 0.97576755 0.06984124 
0.21341373 0.97508395 0.06054732 
0.020266287 0.999773 0.0065652733 
0.014666476 0.9998913 0.0015681036 
0.008304239 0.99996334 -0.002119675 
0.007102696 0.99997395 -0.0013182844 
0.01244816 0.9999199 0.0023073964 
0.019930666 0.99978155 0.006292855 
0.022694938 0.99969715 0.009519006 
0.019511329 0.99976087 0.009880985 
0.01713767 0.9998121 0.009056429 
0.01880395 0.9997929 0.007786265 
0.022489557 0.9997365 0.0046202084 
0.023374079 0.99972665 0.0006545703 
0.021274373 0.99976856 -0.003228995 
0.020756437 0.9997829 -0.0018274941 
0.019445352 0.99978906 0.0066192574 
0.011045892 0.9998675 0.011957715 
-0.0070036924 0.999945 0.0078094197 
-0.030869422 0.9995235 4.237751e-05 
-0.05082395 0.99870086 -0.0036789544 
-0.061552398 0.99810374 0.0005532723 
-0.063537836 0.9979002 0.012572885 
-0.053747736 0.99811995 0.029458946 
-0.029484212 0.99822706 0.05170577 
0.0074603306 0.996738 0.080359735 
0.055397455 0.9926978 0.107155636 
0.10973874 0.9868399 0.11876257 
0.16169907 0.98060864 0.11072597 
0.20522167 0.97470605 0.08849954 
0.24013384 0.9689824 0.058386415 
0.2668334 0.96334785 0.027586687 
0.2829668 0.9591188 0.0045877686 
0.28679928 0.9579661 -0.00687251 
-0.00071822054 0.9999267 0.012087931 
-0.007844458 0.9999333 0.00848189 
-0.012739212 0.99990207 0.00580566 
-0.00873508 0.999947 0.0054593636 
0.0025797437 0.99998283 0.005259682 
0.014491483 0.9998855 0.004382003 
0.019450085 0.999805 0.0034283572 
0.018359795 0.99982804 0.002643365 
0.018720906 0.9998193 0.0033032482 
0.023743888 0.9997136 0.0030003572 
0.029369792 0.9995687 0.00014483751 
0.030705675 0.9995197 -0.0041943686 
0.030151492 0.9995245 -0.006459946 
0.028421547 0.9995959 -0.0005728221 
0.02023475 0.999753 0.009198472 
0.0046125925 0.99991834 0.011923102 
-0.015729947 0.9998471 0.007641145 
-0.036718003 0.99931353 0.004945082 
-0.05284502 0.9985606 0.009179934 
-0.061881423 0.99788356 0.019980617 
-0.061121367 0.997581 0.033111118 
-0.044181235 0.99797255 0.045812376 
-0.00988356 0.9980383 0.06182236 
0.037719224 0.99594647 0.08165797 
0.095123425 0.9910102 0.094076835 
0.15550947 0.98396707 0.08732468 
0.20984833 0.9757812 0.06176279 
0.2534412 0.96700984 0.025684953 
0.28638983 0.95800835 -0.014179013 
0.3089019 0.9497326 -0.050870005 
0.31933525 0.94449204 -0.077199474 
0.31812114 0.94362986 -0.09144243 
-0.017985377 0.99982774 0.004588082 
-0.02467506 0.9996918 0.0027609898 
-0.026710099 0.99964255 0.0012288755 
-0.018175958 0.9998348 -0.0004960301 
-0.002489725 0.99998873 -0.00404669 
0.012370994 0.9998953 -0.007516687 
0.019247316 0.99978197 -0.008100957 
0.0200476 0.99978596 -0.005121034 
0.02241643 0.99974746 -0.0016013267 
0.028624447 0.9995881 -0.00206789 
0.03306318 0.9994363 -0.00583604 
0.032954983 0.99941325 -0.009335328 
0.030933341 0.9994902 -0.007908004 
0.025439085 0.99967635 -0.000278871 
0.014362856 0.9998779 0.006154083 
-0.000116120544 0.99998045 0.006260203 
-0.016363107 0.99985296 0.0051315506 
-0.031979393 0.9994377 0.01008491 
-0.043849483 0.9987811 0.022663461 
-0.05022226 0.9980047 0.038267206 
-0.04568471 0.9976592 0.050882142 
-0.023902178 0.99791026 0.060032956 
0.013795868 0.99744546 0.07008711 
0.06333416 0.994915 0.07831268 
0.12175685 0.98987424 0.07296785 
0.18149689 0.9822547 0.047272544 
0.23275255 0.97251576 0.0062839394 
0.27037638 0.96188444 -0.04092733 
0.2947269 0.9514779 -0.08846432 
0.30759588 0.9425803 -0.13010459 
0.30908206 0.93751496 -0.15979351 
0.30162778 0.9368701 -0.17690463 
-0.018059056 0.9998209 -0.005668364 
-0.023092302 0.9997165 -0.0058053625 
-0.022608405 0.9997273 -0.005848596 
-0.012528905 0.99989134 -0.0077765044 
0.0025952158 0.99991715 -0.012614619 
0.015423711 0.99974704 -0.01637295 
0.020917032 0.999679 -0.0142959645 
0.021743223 0.9997378 -0.007185121 
0.024545692 0.9996958 -0.0024269472 
0.02918464 0.999563 -0.0047063306 
0.030366687 0.99948967 -0.009914213 
0.028032925 0.99953496 -0.012008486 
0.024182266 0.9996729 -0.008329862 
0.017519318 0.9998455 -0.0015134333 
0.008285751 0.99996173 0.0028066256 
-0.0025664791 0.99999124 0.0033127526 
-0.014590415 0.99987954 0.0052935006 
-0.025340917 0.9995635 0.015189382 
-0.033134546 0.99892056 0.032553997 
-0.03594486 0.99809885 0.0500658 
-0.027023705 0.9976903 0.06232024 
-0.0019207913 0.99751085 0.07048745 
0.036054723 0.99647856 0.07570176 
0.08347115 0.99391365 0.07189088 
0.13756473 0.98919034 0.05077885 
0.19053978 0.98160684 0.011951087 
0.23247519 0.9718924 -0.03715356 
0.25804302 0.96201575 -0.08910497 
0.26935637 0.95288223 -0.13950911 
0.27118546 0.9449617 -0.18304642 
0.2648312 0.94006664 -0.21480072 
0.2530807 0.9386901 -0.23411775 
-0.008294849 0.9999465 -0.0061978865 
-0.012224725 0.999915 -0.004540764 
-0.011415065 0.9999318 -0.0024571382 
-0.0036667075 0.9999884 -0.0031467648 
0.0060794684 0.99995196 -0.007694605 
0.012850423 0.9998554 -0.011141716 
0.014852659 0.99986005 -0.007700189 
0.015254273 0.9998837 9.302581e-05 
0.018065197 0.99983335 0.0026457715 
0.020814564 0.99977744 -0.0034388006 
0.02004276 0.99973947 -0.01092829 
0.017507488 0.99976194 -0.013021775 
0.014201633 0.99985504 -0.009403263 
0.0089062685 0.9999548 -0.0033242407 
0.0019847625 0.9999972 0.0012837559 
-0.006350903 0.9999763 0.0026658482 
-0.014916251 0.9998724 0.005732101 
-0.022031376 0.9996011 0.017668733 
-0.02703726 0.9989678 0.036501974 
-0.025975868 0.9981978 0.05409815 
-0.011736387 0.99769163 0.06688575 
0.017185364 0.99701744 0.07523929 
0.055817004 0.9955647 0.075732574 
0.10044876 0.99301445 0.061907094 
0.14755175 0.9885544 0.03144358 
0.19007082 0.9817046 -0.011368324 
0.2195653 0.97375435 -0.05994724 
0.23177828 0.9665024 -0.11023552 
0.2313381 0.9597811 -0.15906918 
0.22544023 0.95320714 -0.2014275 
0.21528748 0.9482138 -0.2335424 
0.20255667 0.94571406 -0.25415692 
-0.002292267 0.9999928 -0.0030578044 
-0.0057111043 0.9999836 0.00029248974 
-0.0056259795 0.9999743 0.004436964 
-0.0011924986 0.99998546 0.005262208 
0.0029637206 0.99999434 0.0016225661 
0.0045760144 0.999989 -0.0010895752 
0.0048554675 0.99998385 0.002959789 
0.0065580923 0.99992734 0.010116402 
0.010190165 0.99989295 0.010498357 
0.012052331 0.9999247 0.0023172076 
0.010764924 0.9999242 -0.0059890156 
0.008626149 0.9999264 -0.008543769 
0.005506761 0.9999667 -0.00602416 
0.00025111382 0.9999997 -0.00077942776 
-0.0062590637 0.99997497 0.0033210306 
-0.013006543 0.99991006 0.0033016177 
-0.01898299 0.9998098 0.004471738 
-0.024061019 0.99960864 0.014270865 
-0.026577752 0.9991751 0.03070577 
-0.020659631 0.9986539 0.047577854 
-0.0013082549 0.99807775 0.061961092 
0.029913312 0.9970487 0.07070568 
0.06777849 0.99541384 0.06750825 
0.10845168 0.99290544 0.048754625 
0.1476028 0.98889524 0.017309384 
0.17920619 0.98358655 -0.021040784 
0.1970081 0.9783863 -0.062833674 
0.19855386 0.97416985 -0.1075613 
0.19022873 0.9699375 -0.15177086 
0.18014884 0.96517825 -0.1896773 
0.16934638 0.9608942 -0.21909876 
0.15829763 0.9580435 -0.2389448 
0.0017961619 0.9999571 -0.009086916 
-0.0011196986 0.9999885 -0.004662314 
-0.0014177312 0.9999989 0.00049504504 
0.0012347591 0.9999974 0.0019562203 
0.002975826 0.9999954 -0.00067132094 
0.0033035753 0.9999933 -0.0015546643 
0.0047917957 0.9999784 0.0044954247 
0.008687292 0.9998751 0.013202438 
0.012497182 0.9998044 0.015332146 
0.012621564 0.9998711 0.009925785 
0.009574941 0.99994504 0.004266672 
0.0056775287 0.9999808 0.0024785122 
0.00042241183 0.9999917 0.0040706145 
-0.0065484075 0.9999493 0.0076608555 
-0.013646966 0.9998657 0.009070418 
-0.01978229 0.9997897 0.0054134335 
-0.024832688 0.99968827 0.0026163503 
-0.028402988 0.9995635 0.00813494 
-0.027488066 0.9993858 0.021736901 
-0.017545199 0.99908316 0.03905043 
0.0033440127 0.99847406 0.055121716 
0.033356644 0.9974296 0.06341668 
0.069140725 0.9958902 0.058501814 
0.1068789 0.99344647 0.040509813 
0.14077508 0.9899447 0.013856834 
0.16500832 0.98614496 -0.01703836 
0.17574681 0.98307455 -0.05174465 
0.17236504 0.98077124 -0.091532186 
0.16075903 0.97824997 -0.13108587 
0.14864086 0.97532296 -0.16325204 
0.13887174 0.9723725 -0.18763383 
0.13138385 0.9699855 -0.20461328 
0.01300953 0.99977314 -0.01686657 
0.0102315685 0.9998777 -0.011830319 
0.008662417 0.99994 -0.00671313 
0.009149497 0.99994063 -0.0059329947 
0.009425929 0.99992037 -0.008389206 
0.009824989 0.9999223 -0.007682068 
0.012488688 0.999922 0.0003117353 
0.016763987 0.99980223 0.010700517 
0.018611426 0.999712 0.015155622 
0.015687203 0.9997899 0.013191824 
0.010064151 0.9998956 0.010374565 
0.0039241808 0.9999481 0.009411089 
-0.0030566766 0.99994063 0.010460259 
-0.01056871 0.9998603 0.01295741 
-0.017228635 0.9997629 0.01331923 
-0.022529054 0.9997009 0.009523885 
-0.02628953 0.9996309 0.0068597803 
-0.027141143 0.9995617 0.0118251825 
-0.02286967 0.9994232 0.025103215 
-0.011781272 0.9990443 0.04209331 
0.007312246 0.99841565 0.055792093 
0.034566533 0.997589 0.06017744 
0.067957975 0.9962368 0.05379563 
0.10295352 0.99393874 0.038553204 
0.13248517 0.99104637 0.016577275 
0.15143457 0.9884191 -0.009768351 
0.15867922 0.9864889 -0.04075178 
0.1542069 0.9850094 -0.07731016 
0.14123091 0.9834963 -0.11308821 
0.12691092 0.9818965 -0.14061654 
0.117665574 0.9800767 -0.16001406 
0.11344952 0.97835225 -0.17307846 
0.026437052 0.9995897 -0.011026823 
0.022763994 0.99972486 -0.005669737 
0.01778579 0.9998414 -0.0010179634 
0.013737255 0.99990463 -0.0014742736 
0.011091578 0.9999269 -0.0048258095 
0.0107862055 0.99993056 -0.004749713 
0.013497767 0.99990773 0.0015602893 
0.016926844 0.9998176 0.008853393 
0.01698027 0.99980277 0.010306854 
0.012834589 0.99989504 0.0067202267 
0.0069669993 0.99997103 0.003092319 
0.0006669101 0.99999857 0.0016068552 
-0.0062898286 0.9999757 0.003000114 
-0.013069154 0.9998872 0.007396609 
-0.018527912 0.9997558 0.012051503 
-0.02236627 0.99964046 0.014787035 
-0.023931338 0.99954456 0.018386913 