# OOMMF OVF 2.0
# Segment count: 1
# Begin: Segment
# Begin: Header
# Title: m
# meshtype: rectangular
# meshunit: m
# xmin: 0
# ymin: 0
# zmin: 0
# xmax: 1.6e-07
# ymax: 1.6e-07
# zmax: 5e-09
# valuedim: 3
# valuelabels: m_x m_y m_z
# valueunits: 1 1 1
# Desc: Total simulation time:  8.722308849843223e-11  s
# xbase: 2.5e-09
# ybase: 2.5e-09
# zbase: 2.5e-09
# xnodes: 32
# ynodes: 32
# znodes: 1
# xstepsize: 5e-09
# ystepsize: 5e-09
# zstepsize: 5e-09
# End: Header
# Begin: Data Text
0.25210473 0.6720339 0.6962856 
0.12211388 0.7441969 0.65670335 
-0.047556903 0.84203255 0.53732646 
-0.18345536 0.90987897 0.3721082 
-0.27431247 0.939789 0.20383635 
-0.30505836 0.95092 0.05187102 
-0.27397522 0.9597289 -0.0621145 
-0.21971491 0.96739304 -0.12600084 
-0.18441322 0.9712177 -0.15075797 
-0.17062977 0.97194916 -0.16186562 
-0.15206698 0.97293234 -0.17400686 
-0.11220946 0.97755075 -0.1783356 
-0.05572779 0.98587334 -0.15795 
-0.0006550931 0.99379164 -0.111255266 
0.034787476 0.9975967 -0.059923608 
0.045797657 0.99861044 -0.026074132 
0.04137799 0.99910486 -0.008802127 
0.03232411 0.9994773 0.0004524096 
0.02215526 0.99975336 0.0015578353 
0.009362886 0.999951 -0.0032188187 
0.0033438082 0.99996686 -0.007426633 
0.016509056 0.999774 -0.013396836 
0.041630466 0.9985931 -0.032844935 
0.05886044 0.9962921 -0.06274852 
0.056233093 0.9951814 -0.08032328 
0.037247665 0.996726 -0.07176263 
0.012455709 0.9988116 -0.047119852 
-0.009291264 0.9996295 -0.025584457 
-0.02482374 0.9994359 -0.022620853 
-0.037365664 0.99833745 -0.043888953 
-0.049526222 0.9958732 -0.07605186 
-0.060670517 0.9934043 -0.09729866 
0.2306377 0.78430045 0.5759159 
0.12934929 0.8322662 0.53907484 
-0.01128225 0.89414644 0.4476326 
-0.1341855 0.9373374 0.32154796 
-0.22288458 0.95669866 0.1872169 
-0.25640035 0.9647244 0.059713684 
-0.23022497 0.97238106 -0.038360156 
-0.18038346 0.9792226 -0.09265525 
-0.1472402 0.98266417 -0.11265669 
-0.13482809 0.9833366 -0.12194469 
-0.12077525 0.98361874 -0.13381918 
-0.09049948 0.98583955 -0.14117473 
-0.047167 0.99045515 -0.12951458 
-0.0056222314 0.9953285 -0.09638305 
0.018921286 0.9980817 -0.05894838 
0.02324462 0.99911785 -0.034974303 
0.016219262 0.9996113 -0.02267756 
0.007423575 0.99987227 -0.014156196 
-0.001014773 0.9999483 -0.010122629 
-0.011522331 0.99988097 -0.010267325 
-0.016210265 0.9998164 -0.0102134235 
-0.0037316156 0.99992365 -0.011777917 
0.019953951 0.9995012 -0.02448044 
0.036759764 0.99826616 -0.045972034 
0.035300475 0.99772984 -0.05735219 
0.018986573 0.99871975 -0.046886776 
-0.0016213199 0.999735 -0.022967288 
-0.017788008 0.99983984 -0.0019735354 
-0.026968488 0.99963194 0.002955517 
-0.03305497 0.9993707 -0.012874571 
-0.038794674 0.9985083 -0.038424402 
-0.042582046 0.997532 -0.055827834 
0.21224047 0.8738579 0.43740883 
0.14000924 0.89986473 0.4130871 
0.029764853 0.9334998 0.3573405 
-0.07920215 0.9583376 0.2744381 
-0.16467401 0.97055197 0.1758162 
-0.19876094 0.97724515 0.07406843 
-0.17472535 0.9845993 -0.0059548835 
-0.12769486 0.99064535 -0.048123058 
-0.097221024 0.99333423 -0.061929677 
-0.088515356 0.9936258 -0.069806464 
-0.08259564 0.99308467 -0.08343221 
-0.06627956 0.9930673 -0.097079806 
-0.040445592 0.9943281 -0.098365486 
-0.016000357 0.996384 -0.08344483 
-0.0047558807 0.99792737 -0.06417535 
-0.008252992 0.9985533 -0.05313572 
-0.017911311 0.998735 -0.046986055 
-0.025765764 0.99893636 -0.03824106 
-0.03143989 0.99909306 -0.028717114 
-0.038624812 0.9990312 -0.021091975 
-0.04139104 0.9990475 -0.0138146 
-0.029671282 0.9995259 -0.008222706 
-0.007814654 0.99990505 -0.01135744 
0.008149121 0.99972814 -0.021846673 
0.0074438746 0.99965096 -0.02535047 
-0.006205981 0.9999056 -0.012263567 
-0.02164155 0.99970484 0.011040449 
-0.030121474 0.9990585 0.031222789 
-0.030275123 0.99882966 0.03772082 
-0.027656114 0.9992494 0.027125629 
-0.026469033 0.99961513 0.008306846 
-0.026023224 0.99965066 -0.0046363994 
0.19949841 0.9196028 0.33842468 
0.14673972 0.9344732 0.32438785 
0.05908356 0.9543583 0.29276186 
-0.035419974 0.9703375 0.23914586 
-0.112145774 0.97963125 0.16657118 
-0.14092195 0.98620725 0.08681145 
-0.11591985 0.9929337 0.025401987 
-0.07233271 0.997376 -0.0030281185 
-0.047770903 0.99880594 -0.01022867 
-0.046542443 0.9987573 -0.017824993 
-0.05129011 0.9980624 -0.035227206 
-0.049401138 0.9971615 -0.0568198 
-0.039668884 0.9966644 -0.07131978 
-0.029809058 0.9968365 -0.07367862 
-0.028753953 0.9970316 -0.07142345 
-0.036833927 0.996687 -0.072514586 
-0.046543308 0.9963403 -0.071692646 
-0.05202962 0.99674064 -0.061653674 
-0.054227374 0.9974841 -0.045661896 
-0.05739316 0.99791896 -0.029389702 
-0.057766184 0.9982331 -0.013925381 
-0.047325313 0.99887943 -0.00047617522 
-0.028845739 0.9995666 0.0058774725 
-0.015513116 0.99986523 0.005380944 
-0.016745273 0.9998278 0.008001627 
-0.028235583 0.9993681 0.021594768 
-0.038514607 0.9983732 0.042043667 
-0.039397527 0.99747485 0.05909121 
-0.03096852 0.9974248 0.06469109 
-0.020409698 0.9981793 0.056757674 
-0.013498092 0.99900633 0.042474657 
-0.010457392 0.99940485 0.032874115 
0.1784603 0.94005084 0.29061386 
0.1374643 0.9499617 0.28049317 
0.06676006 0.96400785 0.25735605 
-0.01124723 0.9763286 0.21599987 
-0.07268007 0.9849004 0.15712711 
-0.090346694 0.9915351 0.09325095 
-0.06280271 0.99683243 0.048795525 
-0.025066376 0.9991197 0.033640478 
-0.01003673 0.99943423 0.032102294 
-0.018558212 0.9995488 0.02362006 
-0.033514857 0.99943644 0.0019000798 
-0.042825203 0.99873346 -0.026412727 
-0.044368252 0.9977368 -0.050523564 
-0.043869074 0.9969246 -0.06493743 
-0.047794193 0.9960703 -0.07456391 
-0.05563177 0.9949066 -0.0840601 
-0.061941847 0.9943202 -0.08654861 
-0.06362317 0.9951499 -0.07502494 
-0.062151153 0.9966075 -0.053952612 
-0.06114744 0.99765325 -0.030809516 
-0.058994204 0.9982225 -0.008458991 
-0.0505611 0.99865454 0.011527545 
-0.03717768 0.99899304 0.025115637 
-0.028128684 0.9991145 0.031287882 
-0.030547922 0.9988807 0.03611356 
-0.039965846 0.9981277 0.046301372 
-0.04574951 0.99712163 0.06046021 
-0.04090686 0.9965982 0.07154449 
-0.026630254 0.9969137 0.073851064 
-0.010805506 0.99773794 0.06635017 
-0.00012993951 0.99850297 0.054698423 
0.004414022 0.99887353 0.047247875 
0.13500658 0.9555725 0.26201993 
0.10481567 0.96216947 0.25148275 
0.052912284 0.9718085 0.22975774 
-0.0030464574 0.9812136 0.19290026 
-0.04266836 0.98884124 0.14273232 
-0.046056654 0.994553 0.09350453 
-0.018397642 0.9976341 0.06624055 
0.007999294 0.9979664 0.06323884 
0.009191105 0.9978477 0.0649276 
-0.010219254 0.99850816 0.053638477 
-0.033430718 0.9990623 0.027515057 
-0.04982141 0.99874455 -0.0052164774 
-0.057501324 0.99775285 -0.034393653 
-0.06076464 0.99663347 -0.05504171 
-0.06378975 0.99544704 -0.070825316 
-0.06586057 0.99426794 -0.084224604 
-0.06470123 0.99404 -0.08774013 
-0.060450763 0.9953217 -0.075369425 
-0.05448518 0.99715024 -0.052180257 
-0.048889562 0.9984758 -0.025612902 
-0.043905273 0.9990353 0.0009392282 
-0.03748673 0.9989854 0.024960576 
-0.029616714 0.9986634 0.04235826 
-0.025149547 0.9983866 0.05090793 
-0.028335575 0.99815595 0.053682536 
-0.035328314 0.9977522 0.056943048 
-0.037777904 0.9973414 0.062312845 
-0.03029248 0.9973733 0.065795675 
-0.014211987 0.99787486 0.06359182 
0.0032821912 0.99845743 0.05542587 
0.015294545 0.9988475 0.045496564 
0.020158235 0.999015 0.03953271 
0.08585573 0.9691305 0.23111671 
0.066555515 0.9730683 0.22069994 
0.034121 0.97896665 0.20114699 
0.0012241971 0.9856165 0.1689932 
-0.017251441 0.99157625 0.12837033 
-0.010516637 0.9954745 0.09444497 
0.010774475 0.99652326 0.082616016 
0.020422393 0.99596846 0.08734956 
0.005884838 0.9961209 0.08779826 
-0.022907583 0.9971604 0.071740076 
-0.050788417 0.9978115 0.042342205 
-0.06982256 0.9975216 0.008695678 
-0.07894298 0.9966596 -0.0209219 
-0.080958605 0.9957807 -0.043204147 
-0.07795107 0.9950909 -0.060973 
-0.0697395 0.9947596 -0.07476402 
-0.057875723 0.9953166 -0.07742962 
-0.045752108 0.9968471 -0.064828396 
-0.034202132 0.9985267 -0.042126395 
-0.023521349 0.9996035 -0.015478703 
-0.015453119 0.99981064 0.011828757 
-0.010674508 0.9992886 0.036173053 
-0.007987655 0.99855393 0.053162407 
-0.007812592 0.9981801 0.059795413 
-0.011253292 0.99830383 0.057121065 
-0.015690342 0.99854547 0.05158411 
-0.016085926 0.9987309 0.04772894 
-0.0086758295 0.9989917 0.04404903 
0.0059755016 0.99925655 0.03808787 
0.022259884 0.99930227 0.029994212 
0.03351046 0.9991874 0.022396782 
0.037583265 0.9991278 0.018199002 
0.037736103 0.9807868 0.19139832 
0.028369471 0.9827868 0.18255252 
0.014148728 0.98598653 0.16622402 
0.0028495535 0.9900618 0.14060429 
0.002641218 0.993703 0.11201566 
0.015184709 0.99540055 0.09458998 
0.026166804 0.9950556 0.09581042 
0.017495727 0.9945065 0.103203036 
-0.011762745 0.99507046 0.09847025 
-0.047589514 0.99588937 0.0770689 
-0.077330664 0.9959175 0.046566516 
-0.09604846 0.99525756 0.0153982015 
-0.10348189 0.9945655 -0.011451048 
-0.10088369 0.99435925 -0.03274617 
-0.08880416 0.99481165 -0.04963639 
-0.06852637 0.995816 -0.06045455 
-0.045415685 0.997184 -0.05967991 
-0.025252238 0.99862146 -0.046018053 
-0.008163473 0.99966705 -0.024476785 
0.006955049 0.9999757 0.00042487713 
0.017427674 0.9995258 0.025388964 
0.020651575 0.9987412 0.045711007 
0.018571602 0.9981788 0.057395678 
0.014628721 0.9982097 0.05799452 
0.011055381 0.99878925 0.0479356 
0.00923865 0.9993753 0.034112215 
0.010480106 0.9996791 0.023062872 
0.01700352 0.9997464 0.0147715295 
0.029465066 0.99953824 0.0074197454 
0.043897174 0.9990353 0.0012879473 
0.053746894 0.9985512 -0.0026220202 
0.056530103 0.9983913 -0.004395322 
0.0067752497 0.9912027 0.13217957 
0.0056364 0.99189633 0.12692523 
0.006093628 0.9929809 0.11811835 
0.011006429 0.99434996 0.10558014 
0.021357095 0.9951897 0.09561082 
0.031355217 0.9948164 0.096732035 
0.027356949 0.9939595 0.10628436 
0.0017015644 0.99403703 0.10902955 
-0.03764869 0.9947751 0.09489496 
-0.07609017 0.9947796 0.06799906 
-0.10427081 0.99381495 0.038202446 
-0.11984641 0.9927248 0.011595112 
-0.123202235 0.99232364 -0.010724841 
-0.11427302 0.99302346 -0.029087257 
-0.09277435 0.9947954 -0.04213287 
-0.061828222 0.9970036 -0.04648805 
-0.029556576 0.9987778 -0.039615173 
-0.0028512003 0.99972063 -0.02346618 
0.01856372 0.99982446 -0.0025412387 
0.036417905 0.999136 0.020026138 
0.04777525 0.9980415 0.04038151 
0.04908277 0.9973721 0.05329037 
0.04258747 0.9974974 0.056437954 
0.034715444 0.9981912 0.049084805 
0.030755956 0.99901927 0.031853996 
0.03108243 0.9994478 0.011747418 
0.03370997 0.99942374 -0.0039844653 
0.03973947 0.999103 -0.01462759 
0.050875094 0.9984747 -0.021447787 
0.06403044 0.9976559 -0.02414057 
0.07252134 0.99709016 -0.023492629 
0.07390026 0.997012 -0.022492545 
0.013258274 0.9966998 0.08008536 
0.01607743 0.9966518 0.08016706 
0.021853017 0.996376 0.08220391 
0.029566687 0.99586684 0.08587846 
0.035400487 0.9949783 0.09362256 
0.031822782 0.993908 0.105519235 
0.011592967 0.99356884 0.1126346 
-0.023884177 0.994249 0.10439591 
-0.06465135 0.9946253 0.08087503 
-0.099777386 0.9936979 0.051078428 
-0.12312315 0.99210906 0.023672653 
-0.13372089 0.99101776 0.0015770956 
-0.13185498 0.9911259 -0.016848871 
-0.116472684 0.9926808 -0.031923708 
-0.08756335 0.9953653 -0.039757572 
-0.049999427 0.9980734 -0.036736224 
-0.0126979835 0.9996323 -0.023960691 
0.017814372 0.999824 -0.005892162 
0.041429274 0.9990426 0.014063395 
0.05964169 0.99764407 0.033902436 
0.07023035 0.99632406 0.049052138 
0.06973906 0.9960949 0.054144002 
0.06001359 0.99698645 0.049158562 
0.049099546 0.99815416 0.0357414 
0.044729453 0.9988884 0.014873819 
0.04648097 0.99889064 -0.007559455 
0.04986667 0.99843854 -0.025174584 
0.05522203 0.99779326 -0.036866296 
0.06466573 0.9969784 -0.043041084 
0.07541737 0.9962185 -0.04313831 
0.08113939 0.9959297 -0.03924888 
0.08035065 0.9961009 -0.036424883 
0.029932993 0.99768484 0.06106602 
0.032490794 0.99732965 0.06540663 
0.035717215 0.9965413 0.07503123 
0.036726397 0.9954949 0.08741356 
0.0308035 0.9945115 0.09999026 
0.013674184 0.9940371 0.108181484 
-0.01477377 0.9943813 0.104821086 
-0.0495858 0.9949555 0.08720587 
-0.08418836 0.99461 0.06052452 
-0.11220535 0.9931491 0.032634392 
-0.12915125 0.9915853 0.008858063 
-0.13373484 0.99096733 -0.009937741 
-0.12562755 0.99174887 -0.02553446 
-0.10419649 0.99386704 -0.037032075 
-0.071164444 0.99667853 -0.039592527 
-0.03224428 0.9989994 -0.030993097 
0.0051555033 0.99987304 -0.015078976 
0.03576644 0.99935627 0.0027901242 
0.058244508 0.9980926 0.020469174 
0.073441625 0.9966213 0.03677419 
0.081019886 0.9956128 0.046809636 
0.0788868 0.9958386 0.045632407 
0.06794166 0.9970586 0.035472002 
0.05599302 0.9982287 0.02010809 
0.051808514 0.998657 0.00032700892 
0.054352608 0.99831057 -0.020543026 
0.057844073 0.99760044 -0.038044963 
0.062081397 0.9967992 -0.050373558 
0.06854652 0.9960488 -0.056464758 
0.074274056 0.9957018 -0.05532887 
0.07443917 0.9959719 -0.0499882 
0.070133485 0.9964505 -0.046561096 
0.03309324 0.9978145 0.057194952 
0.034455966 0.9974096 0.063142546 
0.034621343 0.9966234 0.07445354 
0.030100677 0.99584204 0.08598027 
0.017069012 0.99555117 0.09266401 
-0.0052626934 0.9958252 0.09112914 
-0.033401236 0.9962428 0.079904936 
-0.06279438 0.99616337 0.06095484 
-0.09017437 0.99518645 0.03837384 
-0.11129872 0.99365664 0.016097525 
-0.12153811 0.9925815 -0.0032518646 
-0.11865015 0.99275655 -0.018884076 
-0.102742486 0.99422216 -0.0310845 
-0.075712144 0.99639714 -0.038216244 
-0.041619394 0.99846727 -0.036482725 
-0.005421864 0.9996662 -0.025261283 
0.028119523 0.9995618 -0.009257128 
0.054527108 0.9984935 0.0061446447 
0.07076398 0.9973042 0.019409664 
0.077948265 0.99649763 0.030275127 
0.07939033 0.99624056 0.034670297 
0.0752383 0.99676174 0.028378228 
0.064365685 0.9978133 0.015028493 
0.052365568 0.998628 -1.1391312e-05 
0.0482125 0.99870193 -0.016433608 
0.051167123 0.9981093 -0.034055717 
0.055205595 0.9972106 -0.050232586 
0.05897487 0.9963481 -0.061746556 
0.06177561 0.9958814 -0.06636404 
0.06030317 0.99615335 -0.063577585 
0.052781086 0.99696 -0.057314437 
0.044169635 0.9975728 -0.05382948 
0.026243389 0.9979099 0.059053037 
0.026638318 0.9975832 0.06417231 
0.025171433 0.9970458 0.072568655 
0.01843283 0.9968069 0.07769379 
0.00351715 0.99716264 0.075195 
-0.018740822 0.9976691 0.06561509 
-0.044167154 0.99768686 0.051675197 
-0.06915685 0.9969723 0.03554645 
-0.09116544 0.9956687 0.01823815 
-0.105831094 0.9943835 0.0011555926 
-0.10809079 0.99404407 -0.013887342 
-0.09588528 0.9950678 -0.025422288 
-0.071353376 0.9969113 -0.032811444 
-0.039624058 0.99859864 -0.03508227 
-0.006005005 0.9995225 -0.030311523 
0.026318775 0.9994817 -0.018541526 
0.054449383 0.9985081 -0.0041197557 
0.07374443 0.997249 0.0074933926 
0.0802169 0.99666744 0.014813778 
0.07650154 0.9968874 0.01905469 
0.070073366 0.997379 0.01802488 
0.06345693 0.997952 0.008066462 
0.052851252 0.99857485 -0.0074236356 
0.040193755 0.99893725 -0.02255705 
0.034279514 0.99873304 -0.0368409 
0.036283787 0.99798167 -0.052117314 
0.04112182 0.9969366 -0.066531986 
0.045555197 0.9961308 -0.07515487 
0.04581205 0.996075 -0.07573704 
0.038106628 0.9968405 -0.06969203 
0.024004765 0.9977837 -0.062060595 
0.012184861 0.99821216 -0.05851542 
0.018060017 0.9977685 0.06428021 
0.017281821 0.9976281 0.06662985 
0.01425323 0.9974952 0.06928527 
0.0062565575 0.9977719 0.06642337 
-0.008788444 0.9983753 0.05630022 
-0.029623 0.9986548 0.042558737 
-0.05246335 0.9982091 0.028744385 
-0.07403414 0.9971404 0.015170042 
-0.09107493 0.99584335 0.0011694041 
-0.09885541 0.9950281 -0.012114288 
-0.0929367 0.9954149 -0.022625444 
-0.07260229 0.99694866 -0.028677616 
-0.042063124 0.99866223 -0.030076018 
-0.008160109 0.99958694 -0.027558895 
0.024144817 0.99948967 -0.020917518 
0.052955143 0.99854696 -0.009993679 
0.07573123 0.997127 0.0016625661 
0.08768088 0.9961123 0.008510929 
0.085129924 0.9963272 0.009218356 
0.07230649 0.99735844 0.0069278376 
0.05974338 0.99821234 0.001728557 
0.051682405 0.9986128 -0.010069563 
0.041423358 0.9987766 -0.027007526 
0.026813835 0.9986939 -0.04349099 
0.016782818 0.9981953 -0.057657916 
0.015972475 0.9973035 -0.071629584 
0.02097447 0.99628526 -0.0835214 
0.026243974 0.9958286 -0.087388694 
0.025023028 0.996265 -0.08264436 
0.013266822 0.99719405 -0.07367575 
-0.0046754833 0.9978099 -0.06598191 
-0.017758094 0.9978331 -0.06335405 
0.012793196 0.9973559 0.07153798 
0.010768669 0.9975038 0.06978743 
0.005748771 0.99783224 0.0655581 
-0.0040648887 0.99843186 0.05583396 
-0.019526534 0.99894184 0.04164145 
-0.03891665 0.99886876 0.027328111 
-0.058934163 0.9981489 0.015024217 
-0.07647411 0.997066 0.0033347327 
-0.08772931 0.9961069 -0.008636076 
-0.08840303 0.995903 -0.019028248 
-0.07568521 0.996816 -0.025094407 
-0.050566923 0.99840164 -0.025241511 
-0.018291652 0.9996183 -0.020707559 
0.014464949 0.99979097 -0.014454907 
0.043825254 0.99900913 -0.007758247 
0.06827421 0.99766666 0.00013072915 
0.08549543 0.9963144 0.0069403998 
0.09182996 0.9957451 0.007675245 
0.08433028 0.996437 0.0013478227 
0.066999964 0.9977288 -0.006952409 
0.05123125 0.99857974 -0.014631111 
0.042892233 0.99874425 -0.025889106 
0.033455625 0.9985252 -0.042757493 
0.016869383 0.99801403 -0.06069279 
0.0019210019 0.9971715 -0.075136006 
-0.002946892 0.99621654 -0.08685568 
0.00065975095 0.9955553 -0.09417755 
0.0051564835 0.9957367 -0.09209659 
0.0022087807 0.9965411 -0.08307278 
-0.011769347 0.99718857 -0.07400283 
-0.03086147 0.9971271 -0.06917591 
-0.043427985 0.9966612 -0.069142066 
0.0003916087 0.9977515 0.067022406 
-0.0018112737 0.99811155 0.061401986 
-0.007193729 0.9986334 0.051765654 
-0.017061628 0.9991123 0.038516697 
-0.03083741 0.999233 0.02413523 
-0.0462312 0.9988598 0.011912749 
-0.060818255 0.9981458 0.0024562536 
-0.072137006 0.9973744 -0.006373506 
-0.076453246 0.99695474 -0.015367019 
-0.070395514 0.9972766 -0.021996947 
-0.05300267 0.9983352 -0.022752889 
-0.02671063 0.9995067 -0.01651786 
0.00327481 0.9999728 -0.0066126543 
0.031680197 0.9994966 0.0017672171 
0.055804953 0.9984201 0.0065666717 
0.07421707 0.99719536 0.009655548 
0.08561814 0.9962728 0.010495946 
0.08825972 0.9960852 0.004953978 
0.079234935 0.99682635 -0.007686557 
0.060456164 0.9979509 -0.02095253 
0.04274136 0.9986304 -0.030173905 
0.033899374 0.9986293 -0.039880924 
0.025667273 0.9981247 -0.055572156 
0.009325478 0.9972121 -0.07403537 
-0.00792241 0.9961111 -0.08775009 
-0.015715305 0.995334 -0.095201485 
-0.014393559 0.99530613 -0.09570005 
-0.012532119 0.996099 -0.08734827 
-0.018225761 0.99696016 -0.07575182 
-0.033792295 0.9970531 -0.068872534 
-0.052744295 0.99624616 -0.06864231 
-0.06411927 0.99534965 -0.07188737 
-0.015067512 0.9989424 0.04344081 
-0.01638426 0.9991953 0.03661334 
-0.020124864 0.99945045 0.026342161 
-0.027423423 0.9995117 0.014977885 
-0.03677507 0.9993134 0.0044955076 
-0.045987938 0.99893606 -0.0034626017 
-0.053979684 0.99850255 -0.008883027 
-0.059102923 0.9981575 -0.013730604 
-0.05786101 0.9981506 -0.018642638 
-0.047620032 0.99865067 -0.020719614 
-0.02861504 0.99946004 -0.01615447 
-0.003920731 0.9999802 -0.0049359608 
0.022003919 0.9997284 0.007682024 
0.04523851 0.99885815 0.015355881 
0.06349081 0.9978492 0.016305957 
0.07530285 0.99706715 0.01366119 
0.08094453 0.9966819 0.00854694 
0.080548145 0.99674845 -0.002121404 
0.07095409 0.9972964 -0.019117242 
0.051518623 0.99803096 -0.035777196 
0.0315293 0.99844754 -0.04591871 
0.020894326 0.9983657 -0.053193033 
0.014224196 0.997741 -0.06565484 
0.0015637374 0.99660116 -0.082363896 
-0.014051109 0.99549854 -0.09373047 
-0.023235468 0.9951678 -0.09540068 
-0.02515212 0.9957975 -0.08806156 
-0.02738446 0.9968846 -0.07396837 
-0.035871208 0.9974975 -0.060927566 
-0.051559858 0.9970643 -0.05660748 
-0.06886635 0.9957868 -0.060549658 
-0.07845971 0.99470454 -0.066385254 
-0.026030626 0.9995561 0.014494401 
-0.02721502 0.9995883 0.009090378 
-0.030071065 0.99954563 0.0020672854 
-0.034935817 0.99938077 -0.004207085 
-0.039829914 0.9991622 -0.009405425 
-0.0432882 0.9989753 -0.0132119525 
-0.045490224 0.9988485 -0.01524297 
-0.04552742 0.99882513 -0.016605088 
-0.040429037 0.9990268 -0.017640015 
-0.028159784 0.9994821 -0.015573101 
-0.009261344 0.9999315 -0.007162161 
0.013472329 0.9998903 0.006152218 
0.036384158 0.9991735 0.018125525 
0.055838745 0.9981862 0.022505267 
0.06912148 0.99744177 0.018227879 
0.07498174 0.99714124 0.009336424 
0.07536415 0.9971551 -0.0014722261 
0.071954906 0.99728334 -0.015761508 
0.06185619 0.99748296 -0.034663074 
0.04209399 0.99771965 -0.052760758 
0.019211829 0.9978297 -0.062983006 
0.0048924657 0.9977746 -0.06649759 
-0.0010337204 0.9973453 -0.0728097 
-0.008274209 0.99637383 -0.08468014 
-0.020095157 0.99553555 -0.09222416 
-0.030360404 0.99562436 -0.088376254 
-0.036362603 0.99653995 -0.07473876 
-0.042598896 0.99747735 -0.05678304 
-0.052007742 0.9977272 -0.042845204 
-0.0652033 0.9970812 -0.039719146 
-0.07898241 0.99582946 -0.045667246 
-0.086107045 0.99490297 -0.052475516 
-0.025403513 0.99962723 -0.010010832 
-0.027424937 0.99953616 -0.013239495 
-0.030756097 0.9993918 -0.016437862 
-0.034368943 0.99924713 -0.018000053 
-0.036227033 0.99916357 -0.018973023 
-0.03580834 0.99916756 -0.019547451 
-0.034122854 0.99924684 -0.018480223 
-0.030970557 0.9993925 -0.015988424 
-0.02426267 0.99962723 -0.012520648 
-0.012395155 0.9999034 -0.0062962864 
0.0046239644 0.9999788 0.0045860745 
0.024907533 0.9995332 0.01769291 
0.04521107 0.99861187 0.027023867 
0.06157261 0.9977308 0.027243916 
0.07101584 0.99731517 0.017867196 
0.0727754 0.99734324 0.0032130033 
0.06959231 0.9974928 -0.012847468 
0.064017534 0.9974907 -0.03023555 
0.053953595 0.9972744 -0.050327778 
0.034971006 0.99697757 -0.06937522 
0.010563833 0.9967699 -0.07961373 
-0.0070143226 0.99682146 -0.07935889 
-0.012977361 0.99683785 -0.07839629 
-0.016014222 0.99641794 -0.08303616 
-0.025036981 0.99604034 -0.08530424 
-0.037477348 0.9963042 -0.077287994 
-0.04817071 0.9969872 -0.06079698 
-0.057386387 0.99745464 -0.0423197 
-0.0656789 0.9974157 -0.02912414 
-0.07436186 0.99687856 -0.02652267 
-0.08303119 0.99602115 -0.032367077 
-0.087009944 0.9954613 -0.038550854 
-0.01318589 0.999673 -0.021911094 
-0.016148848 0.9995937 -0.023487689 
-0.02044193 0.9994916 -0.024469681 
-0.023926297 0.99942935 -0.023847546 
-0.024917398 0.99942833 -0.022849761 
-0.023653526 0.9994924 -0.021342162 
-0.021348964 0.99961925 -0.017482439 
-0.017990232 0.999775 -0.011243324 
-0.012027169 0.99992037 -0.003821912 
-0.001976797 0.9999854 0.0050350637 
0.012633558 0.9997908 0.01609014 
0.030414794 0.9991685 0.02715127 
0.048030302 0.99828154 0.03357286 
0.061532438 0.99761915 0.031142676 
0.06846894 0.9974678 0.019235006 
0.06840275 0.9976571 0.0011533918 
0.06355925 0.9977999 -0.018863222 
0.056738995 0.99763054 -0.038911406 
0.04756276 0.9970863 -0.059637927 
0.031621195 0.99638116 -0.078896 
0.009243622 0.99592674 -0.08969147 
-0.009545421 0.99606335 -0.088129215 
-0.017024908 0.9965142 -0.0816675 
-0.018911723 0.996754 -0.07825499 
-0.026464654 0.99686486 -0.074567 
-0.040567145 0.9970857 -0.06461099 
-0.0550546 0.9972555 -0.04950386 
-0.066591635 0.99718297 -0.034522213 
-0.073940545 0.99696827 -0.024232095 
-0.07834838 0.9966847 -0.021936709 
-0.081245966 0.99635375 -0.026047384 
-0.08154685 0.99620754 -0.030344605 
-0.0013801053 0.9996986 -0.02451055 
-0.004710628 0.999674 -0.025096321 
-0.009385636 0.9996298 -0.02553842 
-0.012875509 0.9996005 -0.025160855 
-0.014062765 0.99960524 -0.024322623 
-0.013703872 0.9996607 -0.022156628 
-0.012732832 0.99977875 -0.016743936 
-0.010455939 0.99991196 -0.00817155 
-0.0052531436 0.9999849 0.0016508581 
0.0039625936 0.9999257 0.011538155 
0.016995728 0.99962294 0.021567322 
0.032155648 0.9990173 0.03050575 
0.046338968 0.9982995 0.035366658 
0.056871973 0.9978458 0.032701515 
0.062571935 0.9978185 0.02104671 
0.06267091 0.9980324 0.0019547078 
0.05777964 0.998129 -0.020005256 
0.05061797 0.99789304 -0.040587366 
0.043057643 0.997316 -0.059219766 
0.031603195 0.99657625 -0.07640102 
0.013417452 0.9960113 -0.08821224 
-0.005794796 0.9960292 -0.08883892 
-0.01659251 0.9966156 -0.08051128 
-0.019235378 0.99731106 -0.07071572 
-0.024394222 0.9977599 -0.062292274 
-0.037047744 0.9979266 -0.05263201 
-0.052797996 0.9977503 -0.04131361 
-0.066428445 0.99729735 -0.031392094 
-0.074877635 0.99689424 -0.024397595 
-0.07747592 0.99675167 -0.021994118 
-0.075918876 0.9968302 -0.023786534 
-0.07303482 0.9969943 -0.025849326 
0.006779744 0.99969345 -0.023813596 
0.0038202002 0.9997126 -0.023668518 
-0.00038418302 0.9997081 -0.02415789 
-0.0035846871 0.99968344 -0.02490451 
-0.005281269 0.9996722 -0.025052842 
-0.0066193114 0.99971265 -0.023040429 
-0.008018534 0.99982065 -0.01715798 
-0.0076184184 0.99994284 -0.0075049424 
-0.0034058478 0.9999878 0.0035933072 
0.0048303944 0.9998953 0.013641875 
0.015540507 0.9996348 0.022108106 
0.026925193 0.99922115 0.028849851 
0.037290037 0.9987776 0.032445613 
0.046035953 0.9984892 0.030002728 
0.052906763 0.9984152 0.01918802 
0.055936422 0.99843436 0.00032771524 
0.053665254 0.9983316 -0.021311462 
0.048228204 0.9980561 -0.03947433 
0.04284575 0.99767 -0.05309403 
0.03522088 0.99721843 -0.06568835 
0.020630682 0.9968155 -0.07702762 
0.00087276346 0.996758 -0.08045438 
-0.01408176 0.9972265 -0.073083475 
-0.019167328 0.997972 -0.060700525 
-0.022334563 0.99845964 -0.050789706 
-0.031575147 0.99854505 -0.043711744 
-0.045743566 0.99826175 -0.037163503 
-0.059601333 0.99772394 -0.031539064 
-0.06906298 0.99726856 -0.026188366 
-0.07183991 0.99717236 -0.02205197 
-0.06920245 0.9973964 -0.02028716 
-0.06562792 0.9976526 -0.019557888 
0.011106417 0.9997551 -0.019142594 
0.0084222015 0.9997944 -0.018445658 
0.004242349 0.9998075 -0.019161394 
0.000472859 0.9997733 -0.021287687 
-0.0025026058 0.99973387 -0.022935411 
-0.0058390773 0.99974066 -0.022014095 
-0.0095118 0.9998101 -0.017009659 
-0.0108241355 0.9999109 -0.007812341 
-0.0075433445 0.999967 0.0030535834 
-0.00046877947 0.9999276 0.012027905 
0.0077321636 0.99980617 0.018108008 
0.015740577 0.99962664 0.022335855 
0.023699827 0.9994147 0.024670234 
0.03251787 0.99921465 0.022643995 
0.04185472 0.9990361 0.013235432 
0.048594993 0.998811 -0.0038821609 
0.049854875 0.9984855 -0.023264093 
0.046870716 0.99817497 -0.038079605 
0.043054547 0.9979817 -0.046679214 
0.037949815 0.997848 -0.053473182 
0.027322002 0.9977495 -0.061233792 
0.009618833 0.99782085 -0.06527784 
-0.007955505 0.9981622 -0.060073942 
-0.01765355 0.9986749 -0.04833975 
-0.022231638 0.99899304 -0.038971115 
-0.02904401 0.9989697 -0.034873635 
-0.03946336 0.998669 -0.033208754 
-0.049899567 0.9982502 -0.03172808 
-0.057887 0.99794227 -0.027575614 
-0.06154425 0.9978925 -0.02056675 
-0.061035395 0.99804586 -0.01338105 
-0.05935993 0.99819934 -0.008632086 
0.012422739 0.99984205 -0.012718464 
0.009480787 0.99988425 -0.011902448 
0.0043443665 0.9999041 -0.013154155 
-0.0011402305 0.99985933 -0.016737541 
-0.0060795783 0.9997795 -0.020102251 
-0.0111787375 0.9997219 -0.020763762 
-0.0162482 0.999719 -0.017264327 
-0.018420853 0.9997874 -0.00927096 
-0.015469855 0.99988014 0.0006326555 
-0.008804729 0.99992704 0.00827005 
-0.0016132261 0.99992186 0.012400518 
0.0052973647 0.999874 0.014969139 
0.013074983 0.999773 0.016820345 
0.022799177 0.9996165 0.01572395 
0.03354124 0.9994021 0.008400607 
0.042070564 0.999098 -0.0057673566 
0.045338314 0.99872303 -0.022290217 
0.043797992 0.998425 -0.035061743 
0.040504284 0.99833596 -0.04104656 
0.037335355 0.9983636 -0.043316334 
0.031997196 0.99839616 -0.046704616 
0.019886466 0.99854183 -0.050187863 
0.0029978894 0.99886435 -0.0475493 
-0.011140529 0.9992284 -0.03766486 
-0.019681072 0.9994051 -0.028320339 
-0.026429188 0.99933755 -0.025020286 
-0.033603232 0.99907875 -0.026692752 
-0.0399655 0.99876326 -0.029578231 
-0.045784418 0.9985477 -0.02839801 
-0.05006988 0.9985357 -0.020484282 
-0.051539402 0.99863124 -0.008919214 
-0.05138257 0.9986789 -0.0004620085 
0.016750848 0.99983466 -0.007090259 
0.013553909 0.9998889 -0.0062067797 
0.0073058265 0.9999453 -0.007489195 
-0.00031952068 0.999935 -0.011403588 
-0.007857391 0.9998508 -0.015387237 
-0.015305492 0.99973947 -0.016936336 
-0.022289675 0.9996445 -0.014633714 
-0.026040012 0.9996295 -0.007930862 
-0.024216989 0.9997064 0.0008278085 
-0.018062769 0.9998094 0.0074080997 
-0.010594811 0.9998906 0.010326532 
-0.0024989638 0.9999297 0.011592477 
0.0071783033 0.9998977 0.012375262 
0.01858687 0.99976486 0.011174327 
0.030101847 0.9995308 0.005678405 
0.039128218 0.99922365 -0.004598747 
0.04340996 0.99890995 -0.017164208 
0.04277446 0.9986979 -0.027800135 
0.039359033 0.99868804 -0.03275963 
0.036629803 0.998781 -0.03308749 
0.03475919 0.99881864 -0.033961188 
0.028559806 0.99888635 -0.037554555 
0.015317849 0.99913037 -0.038778484 
-0.000423853 0.9994489 -0.033195347 
-0.012302311 0.99961984 -0.024673926 
-0.019673984 0.99960965 -0.01983875 
-0.024889909 0.9994691 -0.021026868 
-0.02943474 0.99924487 -0.025361488 
-0.035028744 0.9990178 -0.027137836 
-0.040472627 0.9989427 -0.021808324 
-0.043130584 0.9990064 -0.011229166 
-0.043234896 0.9990603 -0.00306003 
0.02459357 0.99968916 -0.0041016736 
0.021990845 0.99975467 -0.002680284 
0.016003722 0.99986815 -0.0027707107 
0.007524979 0.9999576 -0.005308372 
-0.00199 0.9999612 -0.0085805375 
-0.011944252 0.9998735 -0.010507596 
-0.021591524 0.9997216 -0.009519531 
-0.028227616 0.9995914 -0.00451239 
-0.029223105 0.99956846 0.0030090837 
-0.025094552 0.9996416 0.0093255555 
-0.018134126 0.9997589 0.01238553 
-0.0091466345 0.9998715 0.013170841 
0.0019981477 0.99991846 0.012616064 
0.014364699 0.99984044 0.010621004 
0.026074028 0.99963635 0.00688588 
0.03578457 0.9993587 0.0012847973 
0.042423043 0.99908066 -0.006185334 
0.045008082 0.9988887 -0.013987613 
0.043799967 0.9988649 -0.018724106 
0.041989982 0.99893194 -0.01928664 
0.04171016 0.99894166 -0.019386392 
0.03959347 0.9989414 -0.023417126 
0.030204222 0.99910986 -0.02945022 