# OOMMF OVF 2.0
# Segment count: 1
# Begin: Segment
# Begin: Header
# Title: m
# meshtype: rectangular
# meshunit: m
# xmin: 0
# ymin: 0
# zmin: 0
# xmax: 1.6e-07
# ymax: 1.6e-07
# zmax: 5e-09
# valuedim: 3
# valuelabels: m_x m_y m_z
# valueunits: 1 1 1
# Desc: Total simulation time:  6.221190891695102e-11  s
# xbase: 2.5e-09
# ybase: 2.5e-09
# zbase: 2.5e-09
# xnodes: 32
# ynodes: 32
# znodes: 1
# xstepsize: 5e-09
# ystepsize: 5e-09
# zstepsize: 5e-09
# End: Header
# Begin: Data Text
-0.1494831 -0.3130722 0.93789166 
-0.021879476 0.22845404 0.97330886 
0.12308436 0.79159665 0.5985191 
0.19638747 0.93713784 0.28845236 
0.22192843 0.9623241 0.15709932 
0.21750462 0.96921617 0.115376785 
0.19791004 0.975027 0.10076726 
0.17027488 0.9811752 0.09111393 
0.13657254 0.9870193 0.084503844 
0.102589436 0.99155873 0.07928956 
0.077746496 0.99433476 0.07248516 
0.06718719 0.99592257 0.06020176 
0.07258711 0.9966752 0.037009478 
0.09023902 0.9958271 0.013621004 
0.11099734 0.9937982 0.0066911895 
0.13261357 0.99105084 0.015226952 
0.14817372 0.98865265 0.024709815 
0.1399733 0.98979515 0.026704438 
0.09869445 0.99478877 0.025586305 
0.04374185 0.9988065 0.02173236 
0.0012024303 0.9999709 0.0075404607 
-0.02358974 0.99945104 -0.023266353 
-0.030392783 0.99766374 -0.061183337 
-0.019563159 0.9962645 -0.08410945 
-0.0053872466 0.9966933 -0.08107718 
-0.0073610023 0.99838614 -0.056312162 
-0.034356315 0.99921054 -0.019949106 
-0.07109199 0.99745816 0.004821245 
-0.08378255 0.9964805 -0.0026651267 
-0.06106086 0.9978402 -0.02421992 
-0.02832785 0.9993221 -0.023513963 
-0.013258337 0.99989766 -0.0053794347 
-0.38259095 0.5479973 0.743857 
-0.20364174 0.7771749 0.5954237 
-0.015701095 0.94653964 0.32220525 
0.09192142 0.985733 0.14100036 
0.13996778 0.98787886 0.067115195 
0.15496986 0.98660743 0.050893743 
0.15419438 0.9866348 0.052686267 
0.14337674 0.98817396 0.054364827 
0.12298228 0.9909593 0.05361964 
0.097664244 0.9938619 0.0519654 
0.07750274 0.99573594 0.05003267 
0.06870143 0.996616 0.045130223 
0.07133149 0.9969849 0.030544125 
0.08096577 0.9966444 0.012026549 
0.09158417 0.9957938 0.0026655027 
0.103818946 0.99458605 0.004502067 
0.11266058 0.9935933 0.008949563 
0.103056274 0.99461967 0.010547915 
0.067669906 0.99762696 0.01270784 
0.023399733 0.9996209 0.01451406 
-0.008664688 0.99992716 0.008403739 
-0.025165286 0.99961585 -0.011622444 
-0.026373805 0.99893075 -0.037972342 
-0.013020918 0.9985318 -0.05258016 
0.0021503137 0.99888366 -0.04718964 
0.0023065698 0.9996528 -0.026251072 
-0.019562522 0.999807 0.0018426833 
-0.04988715 0.998564 0.01952872 
-0.059860483 0.99814445 0.0111589115 
-0.03958658 0.99918133 -0.008348465 
-0.009835287 0.9999083 -0.009311306 
0.007454184 0.99996173 0.0045819106 
-0.3059757 0.92620236 0.22029091 
-0.20766978 0.9657542 0.15553816 
-0.08519634 0.99491376 0.053741537 
0.0034126947 0.99986196 -0.016262783 
0.05658042 0.9976148 -0.039539643 
0.08884938 0.99555296 -0.031307314 
0.10913138 0.99395245 -0.012198672 
0.1179802 0.993011 0.003153207 
0.11395992 0.99341375 0.011934998 
0.100251235 0.99479985 0.01797497 
0.08637606 0.99596393 0.024395857 
0.07837019 0.99648 0.02976401 
0.07434912 0.9968814 0.026449762 
0.07017958 0.9974294 0.014472129 
0.0652574 0.99786425 0.002915807 
0.06473774 0.9978993 -0.0024510797 
0.06581502 0.9978251 -0.003680818 
0.05604211 0.9984235 -0.003131394 
0.02939453 0.9995668 0.0015117379 
-0.00085234124 0.99996537 0.00828981 
-0.019389266 0.9997609 0.010109143 
-0.024960106 0.9996873 0.001495823 
-0.018276596 0.99976075 -0.012021385 
-0.0007430861 0.9998513 -0.017232142 
0.016318478 0.9998229 -0.009369193 
0.018935876 0.999798 0.0067350133 
0.0024249535 0.9996888 0.024828248 
-0.020950485 0.9991967 0.03416212 
-0.027771013 0.999296 0.025224708 
-0.0105250655 0.999904 0.009024779 
0.014229604 0.999876 0.006748783 
0.029225875 0.99944663 0.015889252 
-0.22209959 0.9744221 -0.034256037 
-0.17715959 0.9823531 -0.059975315 
-0.11097196 0.98894197 -0.09838179 
-0.051473167 0.99104464 -0.1232115 
-0.002880519 0.9922322 -0.124366365 
0.039976954 0.99364406 -0.10522966 
0.07662574 0.99408287 -0.07699176 
0.10191556 0.993452 -0.051638186 
0.112839095 0.99309534 -0.032077353 
0.11128664 0.9936798 -0.014692747 
0.1042243 0.9945505 0.0025936333 
0.09518113 0.9952896 0.018417357 
0.0808247 0.9964035 0.02544351 
0.059887562 0.9980042 0.020030577 
0.038893685 0.9992045 0.008812719 
0.027200472 0.9996299 0.00042479768 
0.023056885 0.99972767 -0.0036139514 
0.01576375 0.9998654 -0.0045633167 
-0.00028665722 0.99999976 -0.00069420715 
-0.01618118 0.9998457 0.0068369163 
-0.022168163 0.9996778 0.012371342 
-0.018385792 0.99977094 0.010958315 
-0.0055739866 0.999965 0.006242191 
0.014270721 0.9998744 0.0069033257 
0.031343248 0.99939954 0.01477501 
0.034578413 0.9990858 0.025137624 
0.021699307 0.99918973 0.03389664 
0.0041073454 0.9993304 0.036356676 
0.00020701194 0.9995959 0.028428806 
0.01454893 0.9997473 0.01713894 
0.03392871 0.9993113 0.015025846 
0.045461427 0.99875927 0.02032914 
-0.1829066 0.9751102 -0.125321 
-0.16172716 0.9767707 -0.14058264 
-0.12450151 0.97862256 -0.1636992 
-0.0820052 0.9805879 -0.17810841 
-0.03579403 0.9835827 -0.17687263 
0.014854748 0.9871166 -0.1593115 
0.063639425 0.98930675 -0.13123424 
0.10072556 0.9897386 -0.10135039 
0.12131101 0.99002177 -0.07169867 
0.12662607 0.9911044 -0.040962636 
0.12180768 0.9924893 -0.011310337 
0.10830774 0.9940161 0.014191494 
0.08301262 0.9961256 0.029030351 
0.048905995 0.99838376 0.02894838 
0.017857403 0.9996287 0.020580402 
0.00024550688 0.9999067 0.013660108 
-0.005557309 0.9999441 0.008998289 
-0.007986924 0.9999567 0.004789665 
-0.012435408 0.9999148 0.003978752 
-0.014738267 0.999858 0.008172488 
-0.010452003 0.9998565 0.01333778 
-0.0008390332 0.9998987 0.014211337 
0.013485996 0.9998302 0.012562904 
0.030579047 0.99943924 0.013649271 
0.042927835 0.9989175 0.017919417 
0.04273094 0.9988526 0.021624194 
0.030262165 0.9992936 0.022283064 
0.016630853 0.99966985 0.01958883 
0.015474875 0.9997844 0.013844708 
0.027576303 0.99958587 0.008230359 
0.04230407 0.99907976 0.007069762 
0.05087438 0.99866337 0.009131499 
-0.18018499 0.97298056 -0.14436828 
-0.16989423 0.9728069 -0.15742613 
-0.1441374 0.9734035 -0.17807297 
-0.10535089 0.97547764 -0.19324782 
-0.054892674 0.9788023 -0.19731392 
0.0048425607 0.9821897 -0.18782964 
0.06393541 0.9839706 -0.16647626 
0.10908536 0.9844942 -0.137374 
0.13393623 0.9858535 -0.100767195 
0.13963166 0.9884793 -0.058409803 
0.13103753 0.9912221 -0.017549133 
0.11011581 0.9937889 0.016069304 
0.07639274 0.99641067 0.03647036 
0.036594454 0.9985047 0.040610325 
0.0037623078 0.99932706 0.036489204 
-0.014369147 0.999351 0.03303099 
-0.019315805 0.9994283 0.02775104 
-0.016088065 0.9997059 0.018151933 
-0.009318347 0.9999046 0.010198877 
0.000558531 0.9999567 0.00928379 
0.012854597 0.99984527 0.012012573 
0.025284111 0.9996132 0.01158116 
0.03728766 0.9992721 0.008057247 
0.047503803 0.9988594 0.0048188465 
0.051250406 0.99868244 0.0026207194 
0.044187848 0.99902296 -0.00071757333 
0.029241953 0.9995499 -0.006702288 
0.017289115 0.999766 -0.013006625 
0.017205086 0.9997119 -0.016738998 
0.026470445 0.99947864 -0.018484617 
0.037297558 0.9991041 -0.020000195 
0.04412331 0.9987998 -0.021265894 
-0.18709837 0.9709524 -0.14914998 
-0.1808587 0.97014946 -0.16155557 
-0.15764661 0.97086436 -0.18047145 
-0.11644425 0.9738256 -0.19520383 
-0.059776362 0.9777083 -0.20127904 
0.0072035724 0.98046994 -0.19653736 
0.07216882 0.98091346 -0.18055633 
0.12055407 0.9808028 -0.15327346 
0.14558747 0.9828977 -0.112767324 
0.1477515 0.9869941 -0.06334243 
0.1319493 0.9911259 -0.01608933 
0.10295239 0.9944548 0.021460494 
0.06456424 0.9969299 0.044297766 
0.02547916 0.9983503 0.05145436 
-0.0038971375 0.9986518 0.05176363 
-0.020254593 0.99848324 0.051196855 
-0.024096027 0.99876946 0.04334853 
-0.01612372 0.9995203 0.026442535 
-9.9200675e-05 0.9999425 0.010725377 
0.01922899 0.99980223 0.005081952 
0.03658262 0.99931383 0.005801223 
0.04883862 0.99879885 0.003967197 
0.05567528 0.9984465 -0.002224943 
0.05693391 0.99832314 -0.010464091 
0.051002327 0.99852234 -0.01876109 
0.036630344 0.9989507 -0.027491497 
0.018798461 0.999109 -0.03778663 
0.007503059 0.9989114 -0.0460416 
0.006582134 0.99881375 -0.048246857 
0.011299471 0.99875975 -0.048489537 
0.017931804 0.99847126 -0.05228509 
0.023726467 0.9980726 -0.057343222 
-0.19282655 0.96983427 -0.149129 
-0.18647362 0.9693684 -0.15985185 
-0.16206908 0.9708306 -0.17669639 
-0.1181135 0.97469527 -0.18978517 
-0.058172632 0.9791511 -0.19462544 
0.010349851 0.98181075 -0.18958008 
0.074028924 0.9818905 -0.17438687 
0.119834356 0.98176557 -0.14756757 
0.1422489 0.98409384 -0.10641721 
0.14081827 0.98841953 -0.056542225 
0.120019995 0.9927205 -0.0100674685 
0.087534785 0.99582404 0.02592414 
0.050326057 0.99756515 0.04828107 
0.016662497 0.99822325 0.057209026 
-0.006677525 0.99817276 0.060054302 
-0.01943858 0.99807614 0.05887446 
-0.020547464 0.9987389 0.04581097 
-0.00821031 0.9997284 0.021811208 
0.013609292 0.9999074 0.00040025794 
0.03671469 0.9992952 -0.007822601 
0.052986536 0.99856776 -0.007412404 
0.05984468 0.9981687 -0.008824344 
0.058069617 0.9981934 -0.015427323 
0.049310975 0.9984535 -0.025674557 
0.034784216 0.9987372 -0.036251187 
0.015341864 0.99881697 -0.046146158 
-0.003227403 0.9984021 -0.056416653 
-0.013707542 0.9979242 -0.06292539 
-0.017697744 0.9978818 -0.06260016 
-0.019388745 0.99782985 -0.0629263 
-0.016332123 0.99741906 -0.06991784 
-0.0098634 0.99690163 -0.078038804 
-0.1886464 0.96833515 -0.16352244 
-0.17880502 0.96911925 -0.16981371 
-0.15022466 0.9719609 -0.18089977 
-0.10415906 0.9765274 -0.18853451 
-0.0458432 0.981218 -0.18737637 
0.016211739 0.9842652 -0.1759525 
0.07000602 0.9853146 -0.15573798 
0.10698963 0.98615986 -0.12665667 
0.124219246 0.9884605 -0.08669154 
0.12019751 0.9919029 -0.041002173 
0.09843911 0.99514306 0.000117712705 
0.06773409 0.99720466 0.031543028 
0.03570421 0.9980388 0.051417142 
0.009236232 0.9981998 0.05926173 
-0.007313644 0.99819636 0.059586417 
-0.01487538 0.99852294 0.052255824 
-0.011677553 0.9994313 0.031636715 
0.004198959 0.9999889 0.0021403774 
0.027950622 0.9993717 -0.021793278 
0.04931221 0.99833137 -0.0300452 
0.059400972 0.99784297 -0.027945507 
0.057132635 0.99801683 -0.026424937 
0.044796593 0.99854374 -0.030062985 
0.026145574 0.9989308 -0.038128123 
0.004795799 0.99891484 -0.046327144 
-0.017208444 0.9984596 -0.052749354 
-0.034619186 0.9976947 -0.058369156 
-0.04456263 0.9972464 -0.059278015 
-0.053030033 0.9970824 -0.05490499 
-0.060989145 0.996616 -0.05510933 
-0.059653226 0.99616915 -0.06394195 
-0.050871186 0.9960296 -0.07305701 
-0.15897354 0.9723137 -0.1712706 
-0.14637667 0.9742208 -0.17166153 
-0.1165361 0.9776298 -0.17509845 
-0.07376608 0.9815817 -0.17622718 
-0.024081571 0.9852865 -0.16920657 
0.025115574 0.9880716 -0.1519332 
0.06477973 0.98984015 -0.12657082 
0.090274684 0.99137896 -0.094965085 
0.100399554 0.9933056 -0.05713165 
0.09358779 0.9954578 -0.017470613 
0.073045105 0.9971887 0.016712707 
0.04699424 0.9980039 0.04218888 
0.021673372 0.9981243 0.057256337 
0.002351621 0.9982248 0.059513267 
-0.007869189 0.9986614 0.051122054 
-0.0101612015 0.9994089 0.03284316 
-0.0029854968 0.99998677 0.0042010355 
0.01428341 0.999519 -0.027528279 
0.036021587 0.99811244 -0.04973992 
0.051284537 0.99718434 -0.054712426 
0.05215651 0.99744546 -0.048808724 
0.039799046 0.9982905 -0.042805232 
0.018099798 0.9989652 -0.04172424 
-0.007305902 0.99895006 -0.045227353 
-0.031495143 0.998347 -0.04807807 
-0.052490674 0.99747497 -0.047836818 
-0.06662062 0.99675643 -0.045148186 
-0.07603766 0.996418 -0.03700724 
-0.08932744 0.9956352 -0.02704194 
-0.101886965 0.9944409 -0.026578723 
-0.0993997 0.9944192 -0.035356995 
-0.08654327 0.9953244 -0.042891253 
-0.12049326 0.97800416 -0.17026262 
-0.106895305 0.98020697 -0.16663657 
-0.07870624 0.98325694 -0.16435127 
-0.041849833 0.9861936 -0.1602214 
-0.0018223742 0.988873 -0.14875099 
0.035749916 0.9912378 -0.12716034 
0.063549496 0.993195 -0.09759702 
0.07830354 0.9948838 -0.06383536 
0.08000248 0.99638945 -0.028420938 
0.069305874 0.99758226 0.0051394408 
0.050619382 0.9981778 0.03284492 
0.03051476 0.9981225 0.053108055 
0.012266723 0.99792284 0.06324191 
-0.0006671868 0.99828 0.05862391 
-0.006281964 0.99916446 0.040386274 
-0.0056980406 0.99991447 0.011775852 
0.0024158247 0.9997473 -0.02235148 
0.017606959 0.99842644 -0.053240966 
0.033733882 0.99690354 -0.07103109 
0.040006023 0.9966756 -0.07097461 
0.030927485 0.9976769 -0.060697634 
0.01039074 0.9986743 -0.05041564 
-0.01627584 0.9988568 -0.044946935 
-0.04247092 0.9981458 -0.04360312 
-0.06384662 0.99714386 -0.04034471 
-0.07948215 0.9963021 -0.032630477 
-0.08790105 0.9959196 -0.020433806 
-0.09589905 0.99538726 -0.002763805 
-0.11198854 0.99363923 0.011818385 
-0.12536426 0.99202424 0.0131086195 
-0.11931221 0.99282897 0.007445118 
-0.10258049 0.9947124 0.004944177 
-0.07133392 0.9842436 -0.1617902 
-0.05821838 0.9861457 -0.15532981 
-0.034288213 0.988381 -0.14807849 
-0.0056538777 0.9903299 -0.13861725 
0.02354657 0.9921517 -0.1228039 
0.049370673 0.99394625 -0.09815035 
0.06585134 0.99557525 -0.06703449 
0.069982156 0.9969565 -0.0343572 
0.06268064 0.9980254 -0.0040687155 
0.047949236 0.9986106 0.021860046 
0.031732965 0.9985834 0.042711347 
0.018065996 0.9981588 0.05790125 
0.006639413 0.99797034 0.06333348 
-0.0011441327 0.9985859 0.053150285 
-0.0041329544 0.99959195 0.028265016 
-0.002608532 0.99997926 -0.005889891 
0.0047813677 0.99917156 -0.04041533 
0.016114034 0.99767315 -0.0662463 
0.024630329 0.99676293 -0.076530814 
0.020850286 0.99734807 -0.06972816 
0.0028891582 0.9984834 -0.054978274 
-0.022485524 0.998866 -0.041965496 
-0.048828688 0.9982001 -0.03482006 
-0.06972361 0.99707186 -0.03140642 
-0.08301713 0.9962446 -0.02459541 
-0.08959099 0.9959104 -0.011660135 
-0.09042203 0.99587154 0.007991778 
-0.09540576 0.99491864 0.032166254 
-0.110909745 0.9926615 0.04818913 
-0.12145038 0.99134487 0.049852785 
-0.11117862 0.9925498 0.049843896 
-0.092322 0.99420816 0.055016987 
-0.031613346 0.99013853 -0.13647833 
-0.019715222 0.9915561 -0.12817171 
-0.0005078344 0.9930155 -0.11798296 
0.020095112 0.9941569 -0.10605759 
0.038944494 0.9952351 -0.08938904 
0.053894766 0.99637014 -0.0658942 
0.061135728 0.99741447 -0.037774295 
0.05780339 0.9982786 -0.009931638 
0.045054715 0.99889773 0.013174164 
0.02924179 0.9991035 0.03061311 
0.017206628 0.9989086 0.043425042 
0.010449834 0.9986048 0.051761467 
0.004961605 0.9986613 0.051489495 
0.0003296958 0.99930364 0.03731351 
-0.0021911266 0.9999438 0.010377451 
-0.001549195 0.9997418 -0.022671076 
0.0030096837 0.9986963 -0.05095653 
0.008176976 0.997735 -0.06676838 
0.007850038 0.9977706 -0.06627474 
-0.0048642317 0.9986843 -0.051050015 
-0.027961047 0.9991082 -0.031638537 
-0.052722283 0.9984612 -0.01719757 
-0.072564475 0.99730504 -0.010820995 
-0.08276292 0.99653983 -0.0076570506 
-0.08467332 0.9964086 0.0006209786 
-0.081017084 0.9965794 0.016300391 
-0.07446038 0.9964446 0.039418448 
-0.075435735 0.995101 0.063903235 
-0.08636986 0.9933879 0.07563664 
-0.09010913 0.99304295 0.075803876 
-0.07581931 0.99369544 0.08258865 
-0.057665627 0.9936527 0.09658736 
-0.009490549 0.9941162 -0.10790306 
0.0015097411 0.99512756 -0.098584615 
0.01778014 0.99603075 -0.087216824 
0.033265345 0.9966159 -0.075167954 
0.04494792 0.9971853 -0.06001061 
0.052107397 0.9978433 -0.039918974 
0.05326616 0.99844116 -0.01667059 
0.046056725 0.99892354 0.005535408 
0.03132615 0.99926233 0.022216314 
0.016315479 0.9993462 0.03226364 
0.008456957 0.9992772 0.037063297 
0.0069702105 0.99926007 0.037825253 
0.004960981 0.9994861 0.031672932 
0.0011602677 0.9998846 0.015151525 
-0.0026322578 0.99994254 -0.010393299 
-0.0043788035 0.9992634 -0.03812549 
-0.0042050066 0.9983739 -0.056849808 
-0.005835932 0.9981426 -0.06064143 
-0.014009268 0.99872917 -0.048412662 
-0.03260741 0.99915713 -0.024938239 
-0.056147613 0.9984217 -0.0012938268 
-0.07518566 0.9970669 0.014309838 
-0.08408178 0.99625665 0.02007665 
-0.08132888 0.9964099 0.023519078 
-0.07196609 0.9968608 0.033007357 
-0.059778742 0.9969787 0.049598817 
-0.04785739 0.9962818 0.07164067 
-0.044283226 0.9949823 0.08971873 
-0.046975486 0.9946362 0.0921538 
-0.04158356 0.9951564 0.08907564 
-0.025415272 0.99454916 0.101124644 
-0.011472191 0.99250215 0.12168826 
0.005035722 0.9968096 -0.079657115 
0.014825653 0.9974237 -0.070187636 
0.02800893 0.9978687 -0.058938134 
0.038715646 0.99808514 -0.048242327 
0.044400033 0.9983582 -0.036189694 
0.04537815 0.99874413 -0.021238843 
0.042193968 0.9990986 -0.004664152 
0.033384178 0.9993856 0.010683812 
0.019262739 0.9995928 0.021053934 
0.006706041 0.99965984 0.025208404 
0.0027156891 0.9996987 0.024398064 
0.004753926 0.9997846 0.020203399 
0.004885479 0.99992746 0.0110127255 
0.001484945 0.9999873 -0.0048191147 
-0.0036269263 0.999647 -0.026319548 
-0.008029972 0.9988615 -0.04702327 
-0.012618684 0.9983395 -0.056207616 
-0.020720271 0.9985418 -0.049848996 
-0.035240244 0.9989436 -0.029494917 
-0.05664325 0.99839264 -0.0019276731 
-0.07690523 0.9967611 0.023514234 
-0.087259255 0.9953714 0.040269833 
-0.083879925 0.9953548 0.047255307 
-0.06906755 0.9962045 0.052975863 
-0.05104896 0.9966135 0.06446534 
-0.034062468 0.9961331 0.08098531 
-0.020050474 0.99492574 0.09859453 
-0.012367313 0.9942318 0.10653719 
-0.0055199056 0.995094 0.09878058 
0.007987732 0.9956689 0.0926268 
0.022278396 0.9939998 0.10709014 
0.028958058 0.991094 0.12997778 
0.014097618 0.99851674 -0.05259044 
0.022084799 0.9987739 -0.0443074 
0.031308856 0.9989121 -0.03455978 
0.036652174 0.998989 -0.026033275 
0.03678414 0.9991687 -0.01757415 
0.033040892 0.9994196 -0.008293303 
0.027647046 0.99961734 0.0009498982 
0.020105273 0.9997587 0.008843641 
0.009862416 0.9998648 0.013161904 
0.0015289756 0.99991137 0.013226104 
0.0004133522 0.999953 0.009689992 
0.0036306414 0.9999869 0.0036188432 
0.0041989707 0.99997467 -0.0057548904 
0.0002767813 0.99982464 -0.018729482 
-0.0068044653 0.99937266 -0.034757446 
-0.014508298 0.9987418 -0.04800322 
-0.023753786 0.9984982 -0.04936777 
-0.036499895 0.9986693 -0.03643186 
-0.05386844 0.99847376 -0.012182596 
-0.073669136 0.99715066 0.016231563 
-0.08741037 0.9952791 0.04217884 
-0.08807679 0.99427944 0.0604238 
-0.073376015 0.9948467 0.06997151 
-0.04897709 0.9957052 0.07856542 
-0.025414754 0.9955347 0.09091121 
-0.006322374 0.99447316 0.10480081 
0.00872663 0.99329484 0.11527953 
0.021118343 0.99335796 0.113111064 
0.036828555 0.99444354 0.09861916 
0.054527353 0.9943099 0.09151327 
0.062665455 0.9924563 0.10537333 
0.060309775 0.99020886 0.12589346 
0.018616013 0.9993883 -0.029606624 
0.024356246 0.99943954 -0.022965863 
0.02930909 0.9994612 -0.014776358 
0.02965006 0.99953103 -0.0076580243 
0.02553636 0.9996728 -0.0015440558 
0.019063253 0.9998123 0.0034769434 
0.013574013 0.9998849 0.006775311 
0.0095238155 0.9999203 0.008295317 
0.0050787413 0.9999583 0.0076045254 
0.0012571384 0.9999883 0.004669938 
0.0014495235 0.9999988 -0.0006737535 
0.0038642534 0.99995863 -0.00824315 
0.0036847237 0.99983084 -0.01802228 
-0.0014552904 0.9995886 -0.028644133 
-0.01116552 0.9991649 -0.039303616 
-0.022786453 0.9987025 -0.045542758 
-0.036049165 0.9985103 -0.040960897 
-0.05111918 0.9984083 -0.02382743 
-0.06797746 0.9976845 0.002190896 
-0.083179906 0.99608266 0.030008677 
-0.0896923 0.99443734 0.05522454 
-0.08213838 0.9938673 0.07403589 
-0.0588487 0.9945649 0.08589309 
-0.028005056 0.99496067 0.09627643 
-0.0010791791 0.99427885 0.10681059 
0.019625193 0.9931759 0.114962965 
0.036438096 0.99246657 0.116972394 
0.053838316 0.99274766 0.107487604 
0.07564209 0.99289536 0.091853805 
0.09268196 0.99192184 0.08660901 
0.092372224 0.9909302 0.09759493 
0.081753425 0.9903115 0.11224714 
0.015352583 0.99980366 -0.012531717 
0.01898635 0.99979 -0.0077137304 
0.020733718 0.9997841 -0.0013436164 
0.018167952 0.99982643 0.0041310326 
0.012482484 0.9998907 0.007934401 
0.0060043996 0.99993443 0.0097481515 
0.0026450898 0.9999509 0.009558235 
0.0035670847 0.9999614 0.008041458 
0.0055091404 0.9999687 0.00568249 
0.006080266 0.9999794 0.0021047632 
0.007140213 0.99996626 -0.0040718326 
0.008636496 0.99987084 -0.013558565 
0.0077569517 0.9996598 -0.02490671 
0.0010213945 0.99940205 -0.034561913 
-0.012030892 0.99908406 -0.041066628 
-0.028167494 0.99872655 -0.041856874 
-0.04502629 0.9984346 -0.03318378 
-0.061166063 0.99803346 -0.01371349 
-0.0759572 0.99703646 0.012200823 
-0.08623509 0.9955517 0.03795253 
-0.08732561 0.99430615 0.06107013 
-0.07458327 0.99400854 0.079902776 
-0.04663116 0.9944455 0.09436015 
-0.013058043 0.9943241 0.10558963 
0.015640596 0.99363834 0.11152721 
0.038553156 0.99306333 0.11108069 
0.058627583 0.9928047 0.10441058 
0.08088279 0.992486 0.09181261 
0.105078846 0.9912003 0.08050177 
0.118086584 0.98985445 0.079017095 
0.111056514 0.9901014 0.0858236 
0.09625621 0.9909795 0.093243785 
0.0026721542 0.99998415 -0.004965723 
0.005191327 0.9999846 -0.0019488485 
0.0062866765 0.999978 0.0021489176 
0.004246082 0.99997747 0.0052054944 
0.00017925362 0.999979 0.0064856024 
-0.0037898 0.9999724 0.0063989256 
-0.0036400242 0.999977 0.0057357154 
0.0019623688 0.99998504 0.005102927 
0.008706181 0.9999521 0.0044732965 
0.012299509 0.99992234 0.002032295 
0.013978372 0.9998908 -0.0048142136 
0.015211124 0.99974805 -0.016511315 
0.01395272 0.999474 -0.029278116 
0.0056502987 0.9992726 -0.037716232 
-0.010318931 0.9991514 -0.039875153 
-0.029894445 0.9989363 -0.03511061 
-0.048695505 0.99856156 -0.022438692 
-0.06413121 0.99793994 -0.001793287 
-0.07557361 0.99689215 0.022240033 
-0.081165045 0.9957032 0.044578962 
-0.0781647 0.99483234 0.064800024 
-0.06259369 0.99454516 0.08343801 
-0.03395932 0.99446565 0.09942303 
-0.0009984672 0.99410504 0.10841633 
0.02891822 0.9939177 0.10626041 
0.055148233 0.99389106 0.09559997 
0.07890228 0.9935227 0.081774004 
0.103440516 0.99221146 0.069400884 
0.12617558 0.9899614 0.06368777 
0.13556798 0.9886601 0.06459648 
0.1275242 0.9895939 0.06664451 
0.11407725 0.99115646 0.067789145 
-0.0089830095 0.9999293 -0.0077905804 
-0.0062821987 0.99996567 -0.0054212604 
-0.0037221035 0.99999076 -0.0021846218 
-0.0031496603 0.9999951 -4.4822686e-05 
-0.0042204824 0.99999094 0.00065634295 
-0.005125421 0.99998647 0.0009679723 
-0.0022000242 0.999996 0.0018333615 
0.0057052695 0.99997896 0.0030903632 
0.014227931 0.99989146 0.0038527567 
0.018902825 0.99982023 0.0014553433 
0.020542713 0.99976736 -0.0065731765 
0.020737829 0.9996006 -0.019202407 
0.017434552 0.99936444 -0.031092053 
0.0063138152 0.99931186 -0.036550883 
-0.012525156 0.99935406 -0.033686128 
-0.03427662 0.99912757 -0.023858642 
-0.053073965 0.9985492 -0.009099546 
-0.0657307 0.99779063 0.009664055 
-0.072142504 0.9969531 0.02966491 
-0.07184129 0.99622977 0.04863262 
-0.06406657 0.9956695 0.06736351 
-0.046813905 0.99516255 0.086371385 
-0.020295016 0.9945792 0.101982825 
0.010388311 0.9942831 0.10627019 
0.04162552 0.99446964 0.09642304 
0.07097277 0.99435633 0.078857474 
0.09660514 0.99344176 0.06116255 
0.12016678 0.99151665 0.049544863 
0.1394885 0.9891156 0.046833266 
0.1476053 0.9879163 0.047265146 
0.14386806 0.98861706 0.044027284 
0.13596298 0.9899153 0.03977311 
-0.0067802677 0.9999235 -0.010349311 
-0.003534296 0.9999676 -0.007238471 
0.00032341492 0.99999624 -0.0027122165 
0.0024646884 0.9999965 0.0010669611 
0.0025874476 0.9999901 0.0036425018 
0.0026477992 0.9999796 0.0058069406 
0.006011112 0.9999517 0.007782249 
0.013653678 0.9998682 0.008789091 
0.021732943 0.9997313 0.008073671 
0.02604859 0.999654 0.0036618088 
0.026106324 0.99964225 -0.005818222 
0.022622822 0.999577 -0.018279076 
0.014295757 0.99949336 -0.028437382 
-0.001120118 0.9995102 -0.03127667 
-0.022438224 0.9994298 -0.025232337 
-0.044800054 0.99890274 -0.013651345 
-0.062179968 0.9980648 -0.0004676422 
-0.07165857 0.9973277 0.01423477 
-0.07310755 0.99684674 0.030851884 
-0.06670922 0.9965767 0.048832994 
-0.05388304 0.996256 0.06760626 
-0.035305586 0.99567235 0.08596647 
-0.0109536 0.99506783 0.09859103 
0.018828508 0.9949729 0.09835965 
0.05227191 0.9949154 0.08608674 
0.083924316 0.994128 0.068310715 
0.109759524 0.9926559 0.05086425 
0.129765 0.9907393 0.03996 
0.14338048 0.98899096 0.036593635 
0.15045431 0.98806995 0.03288583 
0.15332837 0.9878823 0.024060553 
0.15292323 0.98810655 0.016124988 
-0.0014371503 0.9999968 -0.0021324574 
0.0015301995 0.99999785 0.0014124553 
0.0048901266 0.99996555 0.0067172158 
0.006141866 0.9999129 0.011683066 
0.0051237145 0.999866 0.015553607 
0.004430395 0.99982643 0.018095851 
0.007367293 0.99980545 0.018300207 
0.01467623 0.99977314 0.015433345 
0.02295262 0.9996852 0.010136099 
0.027758352 0.99961185 0.0023660585 
0.026838437 0.9996067 -0.0081297355 
0.020165196 0.99961257 -0.01918698 
0.008170215 0.99961513 -0.026512902 
-0.009020557 0.99961954 -0.026066864 
-0.03021957 0.99939024 -0.017492201 
-0.051863614 0.99863684 -0.005899705 
-0.06918158 0.99759364 0.0045765243 
-0.07884076 0.99676365 0.015696898 
-0.07861535 0.99644846 0.030170863 
-0.06824726 0.99656 0.04701684 
-0.051416334 0.99664384 0.063698746 
-0.03163488 0.9964528 0.07798073 
-0.0077371653 0.9963203 0.0853586 
0.023031319 0.9962763 0.08308567 
0.058070533 0.99555486 0.07415067 
0.09034065 0.9940054 0.06157882 
0.11466595 0.99224895 0.047893737 
0.12917258 0.9909156 0.037426338 
0.13616396 0.99022305 0.030293021 
0.1418003 0.98966515 0.021346254 
0.14905547 0.9887821 0.009619262 
0.15322158 0.9881912 0.001162689 
-0.006982637 0.99991465 0.011046329 
-0.0049392786 0.99989843 0.013372002 
-0.002868513 0.9998534 0.016885158 
-0.0029496031 0.999791 0.020228859 
-0.004790331 0.9997301 0.02273529 
-0.005424465 0.99971575 0.023220906 
-0.0019625877 0.99980056 0.019877665 
0.00590456 0.9999045 0.012500386 
0.015227385 0.9998782 0.0034285355 
0.021525932 0.99975216 -0.0056903227 
0.021457244 0.99966455 -0.0145068625 
0.014594364 0.9996594 -0.021636268 
0.0029159463 0.9996994 -0.024345241 
-0.012474074 0.99971527 -0.020343386 
-0.031369872 0.99944705 -0.011027545 
-0.05204146 0.99864376 -0.0015378884 
-0.07060253 0.99748796 0.005755112 
-0.081858315 0.99653524 0.014723514 
-0.08118461 0.9962928 0.02845569 
-0.06849865 0.9966629 0.04439525 
-0.050110526 0.99702287 0.058603678 
-0.03086181 0.99720484 0.068046264 
-0.0078254705 0.99747884 0.07053275 
0.02215559 0.99747366 0.06749521 
0.055692 0.9965185 0.062043123 
0.086407654 0.994752 0.054793846 
0.10865182 0.9930455 0.045337476 
0.11963445 0.99220276 0.034949575 
0.122780465 0.99212474 0.02476885 
0.12612821 0.99191713 0.013861602 
0.13308221 0.991101 0.0028221277 
0.13785443 0.99044305 -0.0043333475 
-0.015883591 0.9996621 0.020577468 
-0.0145109175 0.9996829 0.020580903 
-0.013101324 0.9996985 0.020768654 
-0.013364969 0.999686 0.021197474 
-0.014727579 0.999657 0.021659883 
-0.014668363 0.99968266 0.020481333 
-0.011269611 0.9998165 0.015490241 
-0.004501977 0.9999664 0.006856224 
0.0035386833 0.99999094 -0.002383123 
0.009320301 0.99990666 -0.010000174 
0.009453688 0.99983466 -0.015539391 
0.0035251612 0.9998171 -0.018803459 
-0.005938794 0.9998044 -0.018866552 
-0.017965013 0.99971944 -0.0154393045 
-0.033322353 0.99939334 -0.010131462 
-0.051512767 0.9986576 -0.00543048 
-0.068480305 0.9976524 -0.00044649106 
-0.0779893 0.99690825 0.009571661 
-0.07528474 0.9968316 0.025669623 
-0.061741833 0.997145 0.04347076 
-0.044862874 0.9973314 0.05759729 
-0.028088817 0.99754 0.06422581 
-0.0076920292 0.99796194 0.06334641 
0.018335003 0.9981193 0.058495406 
0.04697724 0.9974635 0.053476352 
0.0735115 0.996085 0.04909925 
0.09373876 0.99468154 0.04268255 
0.10469236 0.9939595 0.032924473 
0.10713361 0.9940031 0.021914056 
0.10796663 0.99408484 0.011769256 
0.11270575 0.9936201 0.0040681916 
0.11695115 0.99313766 0.0001830353 
-0.020929318 0.9996186 0.018020695 
-0.019764824 0.99966854 0.016496403 
-0.018155148 0.99972844 0.014609936 
-0.017260382 0.99975777 0.013659459 
-0.01669956 0.9997656 0.0137834875 
-0.015242023 0.99979734 0.013153825 
-0.012308145 0.9998785 0.009565717 
-0.007991985 0.99996287 0.0032473647 
-0.003256615 0.9999894 -0.0032869487 
-0.00019839172 0.99996775 -0.00802867 
-0.0015047857 0.99994385 -0.010497247 
-0.0072874953 0.9999095 -0.011307258 
-0.01524701 0.9998183 -0.011437142 
-0.024850031 0.99961764 -0.012129151 
-0.03753814 0.9992047 -0.013453132 
-0.052768905 0.9985106 -0.013859746 
-0.06582684 0.9977861 -0.00947713 
-0.07120402 0.99745715 0.003065335 
-0.066031486 0.99757737 0.02189401 
-0.053116225 0.99772394 0.041542638 
-0.03846356 0.9976939 0.055924702 
-0.02349979 0.9978156 0.061739646 
-0.0059701917 0.9981624 0.060300563 
0.014532797 0.99837255 0.0551467 
0.035689894 0.99809957 0.05023542 
0.05525308 0.9973748 0.04680432 
0.07228842 0.9964972 0.04204582 
0.083833575 0.9959046 0.03385356 
0.08735645 0.9958956 0.023680545 
0.08778016 0.99602205 0.015326396 
0.0912292 0.99576026 0.0117762275 
0.094703004 0.99543506 0.011848498 
-0.023535294 0.99972105 -0.0020195404 
-0.021996409 0.99975294 -0.0031894955 
-0.019167632 0.9998079 -0.00410292 
-0.015710736 0.9998718 -0.0031067834 
-0.011662978 0.99993193 -0.00031903235 
-0.0074428576 0.9999698 0.0022773107 
-0.0037042992 0.9999895 0.0026934093 
-0.00056311913 0.9999995 0.0008984678 
0.0017951629 0.9999967 -0.0018445236 
0.0022541555 0.9999889 -0.0041531706 
-0.0009817365 0.9999861 -0.005180833 
-0.007725384 0.9999545 -0.005603665 
-0.01620549 0.9998374 -0.00791698 
-0.026387157 0.99955535 -0.01389163 
-0.03969381 0.9989896 -0.021076502 
-0.05430344 0.998234 -0.024083665 
-0.065149724 0.9977123 -0.018049955 
-0.06877521 0.9976278 -0.0029770043 
-0.06464229 0.9977699 0.016633254 
-0.054987393 0.99786305 0.03529496 
-0.042274028 0.99793285 0.04840416 
-0.027392095 0.99809736 0.05524032 
-0.01099469 0.9982852 0.057496715 
0.005841279 0.9983942 0.056347903 
0.021149527 0.99833894 0.053593073 
0.034665965 0.9981115 0.050713107 
0.047717806 0.997731 0.047497816 