# OOMMF OVF 2.0
# Segment count: 1
# Begin: Segment
# Begin: Header
# Title: m
# meshtype: rectangular
# meshunit: m
# xmin: 0
# ymin: 0
# zmin: 0
# xmax: 1.6e-07
# ymax: 1.6e-07
# zmax: 5e-09
# valuedim: 3
# valuelabels: m_x m_y m_z
# valueunits: 1 1 1
# Desc: Total simulation time:  7.612283204367018e-11  s
# xbase: 2.5e-09
# ybase: 2.5e-09
# zbase: 2.5e-09
# xnodes: 32
# ynodes: 32
# znodes: 1
# xstepsize: 5e-09
# ystepsize: 5e-09
# zstepsize: 5e-09
# End: Header
# Begin: Data Text
0.119076714 -0.9845189 -0.12862131 
0.13510703 -0.9907388 0.013514381 
0.11296329 -0.9828925 0.14547066 
0.046504647 -0.96970236 0.2398222 
0.026892561 -0.9005806 0.4338566 
-0.07952638 -0.31180456 0.94681233 
-0.54923743 0.83416 -0.050154626 
-0.4037037 0.8646989 -0.2988629 
-0.38854402 0.88478523 -0.25727183 
-0.19086267 0.9077926 -0.37347573 
0.16413142 0.9681189 -0.18922679 
0.09992625 0.9883319 0.11495629 
-0.076793656 0.9900099 0.11825106 
-0.049292605 0.99804276 -0.038482126 
0.07604008 0.99063385 -0.113412775 
0.15542458 0.9802719 -0.12210819 
-0.010368788 0.993775 -0.110922165 
-0.18490432 0.98271143 -0.009417825 
-0.18036231 0.982672 0.04272316 
-0.1232742 0.9918328 -0.032729696 
-0.042853463 0.9952584 -0.08731744 
0.048723567 0.9932281 -0.10547134 
-0.011109863 0.9970529 -0.075908564 
-0.14844136 0.983548 -0.102950186 
-0.21398747 0.9087213 -0.3583782 
-0.4774613 0.44115728 -0.7598758 
-0.21089132 -0.7314911 -0.64841783 
0.044093583 -0.8384579 -0.54317987 
0.21879424 -0.5785872 -0.7857264 
0.27570355 0.43927786 -0.85499865 
0.20893198 0.8554275 -0.47391066 
0.15403384 0.9476814 -0.2795954 
0.18098639 -0.98203343 0.053425 
0.121707276 -0.9833797 0.13472876 
-0.055993486 -0.9778072 0.20188604 
-0.19762371 -0.93172175 0.30469596 
-0.047321774 -0.6088165 0.7918984 
-0.13965724 0.5897613 0.79541034 
-0.2136539 0.9606621 0.17742705 
-0.22651435 0.97050357 -0.08254769 
-0.25722855 0.95624864 -0.13936305 
-0.13320728 0.94750243 -0.29068047 
0.14193049 0.98253673 -0.12032159 
0.058821864 0.9904472 0.12471745 
-0.08761049 0.99356323 0.07180933 
-0.024692737 0.9957248 -0.089008 
0.118504494 0.9855135 -0.12132507 
0.19248228 0.97679406 -0.093935795 
0.06368565 0.99361247 -0.09315792 
-0.08684901 0.99594593 -0.02343205 
-0.10234489 0.994184 0.033520486 
-0.0765343 0.9970647 0.0021207521 
-0.034138642 0.9993631 0.010390084 
0.02587064 0.99966437 0.0013581172 
0.017895857 0.99885195 -0.044436064 
-0.03780341 0.9939457 -0.10316382 
-0.032301508 0.9659503 -0.25670364 
-0.084501795 0.8349004 -0.5438757 
-0.06815632 0.38319525 -0.9211494 
0.06506321 0.030046856 -0.9974287 
0.0373402 0.27947888 -0.95942557 
0.044342656 0.79373866 -0.6066404 
0.05048643 0.9504795 -0.30665937 
0.063814245 0.9806485 -0.18508427 
0.5041372 -0.8077827 0.3055041 
0.23318514 -0.9441409 0.23285742 
-0.49249744 -0.8701565 0.016555605 
-0.9386225 -0.19596532 -0.2838757 
-0.6711366 0.47063193 0.57278377 
-0.14814322 0.8914708 0.42817453 
-0.058329158 0.9648945 0.25607905 
-0.07252019 0.99646133 0.042495117 
-0.12444074 0.99165255 -0.033762917 
-0.03908637 0.9773339 -0.20806468 
0.1485185 0.9885691 -0.025953095 
0.014886589 0.9860214 0.16595244 
-0.09966261 0.9938024 0.049236007 
0.0052112695 0.99245286 -0.122515954 
0.15543373 0.9807882 -0.117876515 
0.214874 0.9750722 -0.055349696 
0.12981191 0.9902566 -0.0504065 
0.0036210164 0.9996378 -0.026671581 
-0.03617049 0.99923265 0.015031996 
-0.040427826 0.9991801 0.0022215263 
-0.02524762 0.9993785 0.024600914 
-0.0059643607 0.99951845 0.030451799 
-0.01423641 0.99869424 -0.049062304 
-0.01886896 0.9929669 -0.11687915 
0.023803908 0.9884986 -0.14934509 
0.012062283 0.97951394 -0.20101495 
0.0038285912 0.9442621 -0.32917225 
0.04242786 0.9018975 -0.42986143 
0.005628853 0.90538734 -0.42454925 
-0.010718822 0.95737875 -0.28863674 
-0.0066826288 0.9902415 -0.13920161 
0.014214219 0.9991564 -0.038528997 
0.51679766 0.85421866 0.05684005 
0.47216308 0.83843684 -0.2721868 
0.08696352 0.8368473 -0.54048485 
-0.24014865 0.89552665 -0.3746475 
-0.2776087 0.95558953 0.09890501 
-0.08196085 0.9768176 0.19776206 
-0.051275976 0.9845845 0.16722512 
0.055461198 0.99819344 0.023108317 
0.06066665 0.99782985 -0.025599254 
0.17466176 0.9837036 -0.042668436 
0.14551134 0.9723993 0.18238983 
-0.078682646 0.97420794 0.21149005 
-0.12063205 0.99263775 0.010877975 
0.055995718 0.9897654 -0.13125959 
0.20423745 0.974962 -0.08795595 
0.24067725 0.9705402 -0.011231986 
0.18248332 0.98319304 0.0055962955 
0.06941848 0.99758756 0.00044333265 
-0.0051782783 0.9999132 -0.012120459 
-0.033178862 0.99767876 -0.059467286 
-0.004613545 0.99815553 -0.06053294 
0.022062717 0.99934644 -0.0286361 
0.03508075 0.99659723 -0.07458819 
0.054490358 0.9888015 -0.13893309 
0.09106472 0.98692006 -0.13302708 
0.06795502 0.994588 -0.07859351 
0.060464937 0.9968444 -0.051432036 
0.06465223 0.99417436 -0.08624176 
0.04822106 0.98961514 -0.13541327 
0.038390916 0.9900674 -0.13525061 
0.03378283 0.99886477 -0.033586472 
0.04244741 0.996712 0.06901821 
0.19969487 0.97855616 -0.050494824 
0.20993277 0.9563137 -0.20345074 
0.067934625 0.9607271 -0.2690509 
-0.09952396 0.9794094 -0.17564806 
-0.14755163 0.98839015 0.03624217 
-0.0625912 0.9900391 0.12611495 
-0.021246469 0.99678224 0.07729024 
0.10495224 0.99421436 0.02286799 
0.1835995 0.982899 0.014170129 
0.24690852 0.95810384 0.14516635 
0.057031535 0.9620903 0.26670146 
-0.12380483 0.9845863 0.12354047 
-0.06634257 0.99618363 -0.056718357 
0.1361512 0.9850158 -0.105862066 
0.25879052 0.9649947 -0.04257582 
0.27223548 0.9621038 0.015626516 
0.23368996 0.97190005 0.028274238 
0.14280567 0.9897493 0.001667554 
0.0367842 0.997992 -0.051564697 
-0.027717315 0.9913379 -0.12837806 
-0.021790061 0.98536825 -0.16904058 
0.0051355497 0.9871537 -0.15969142 
0.06531269 0.9842085 -0.1645236 
0.13493806 0.9720373 -0.19218579 
0.16050659 0.9672888 -0.19644335 
0.1089414 0.9838558 -0.14198421 
0.077987924 0.99581516 -0.04764589 
0.08618155 0.99549544 -0.03951733 
0.114122525 0.98751265 -0.108604535 
0.12546311 0.9830657 -0.13356975 
0.06817916 0.9969149 -0.03888979 
0.016729625 0.99889886 0.043831307 
0.124964304 0.98799336 -0.09084657 
0.15519844 0.97821283 -0.1378882 
0.064009026 0.9901358 -0.124636024 
-0.06823349 0.9945966 -0.078242026 
-0.1260523 0.9919693 0.010378719 
-0.10912632 0.9904756 0.08396266 
-0.0680593 0.9942104 0.08314902 
-0.008083517 0.99660087 0.08198485 
0.068142995 0.9949375 0.073865905 
0.08642759 0.9856126 0.14525266 
-0.010244396 0.992903 0.118484944 
-0.020431308 0.999467 -0.025464429 
0.06808789 0.99422467 -0.08295496 
0.19742492 0.9783428 -0.062199485 
0.2809853 0.9596283 -0.012685267 
0.3088078 0.9509317 0.019150289 
0.30997688 0.9505695 0.018219765 
0.24258646 0.96970266 -0.028784527 
0.13874644 0.98464555 -0.10593761 
0.03771054 0.9795524 -0.1976239 
-0.05774586 0.95950234 -0.27571884 
-0.092038855 0.95255935 -0.29010263 
-0.025173131 0.9596896 -0.27993277 
0.0729115 0.95444745 -0.2893338 
0.09298146 0.9515067 -0.29323968 
0.02787622 0.9698068 -0.24227612 
0.01955741 0.98933786 -0.14431994 
0.082285024 0.9910725 -0.10490209 
0.13483465 0.9803969 -0.1436716 
0.13264625 0.98176605 -0.1361632 
0.050132636 0.9980203 -0.03797806 
-0.015326552 0.99967325 0.020459814 
0.19586349 0.97920954 -0.05278453 
0.20498846 0.97536314 -0.08152622 
0.123319544 0.98585576 -0.113493994 
0.018209372 0.9956054 -0.09186072 
-0.06333944 0.9979283 -0.011285141 
-0.10597999 0.99280363 0.055760056 
-0.08476836 0.9915011 0.098691545 
-0.046930943 0.99484766 0.08986503 
0.010636041 0.99956816 0.027396198 
0.043738477 0.9986102 -0.029404704 
0.068944454 0.99202394 -0.105523564 
0.12744632 0.982974 -0.13236156 
0.16525193 0.9821328 -0.09003947 
0.19207108 0.97968894 -0.05760611 
0.2209792 0.97522646 -0.010072571 
0.26077265 0.9639162 0.05350869 
0.28912145 0.95424926 0.07627103 
0.23611417 0.97166425 -0.010891201 
0.16971895 0.96974015 -0.17549828 
0.09382766 0.9430207 -0.3192311 
-0.06184105 0.90173453 -0.42784405 
-0.13110912 0.8955101 -0.4252908 
-0.07669964 0.92015284 -0.38397396 
-0.018096114 0.9323821 -0.3610211 
-0.04137797 0.9363405 -0.3486467 
-0.1152128 0.9516372 -0.2848028 
-0.0812928 0.9707512 -0.22590621 
0.041401938 0.98324525 -0.17752378 
0.09207491 0.98149693 -0.167887 
0.05587275 0.9907652 -0.123541184 
0.0027229765 0.999849 -0.01716544 
-0.010066904 0.9989741 0.044152334 
0.15179683 0.98835033 0.011025324 
0.15445554 0.9858273 -0.06548232 
0.09323734 0.9829143 -0.15870197 
0.022517469 0.9889591 -0.14646833 
-0.015668288 0.99917203 -0.037547916 
-0.026012802 0.99948096 0.019002175 
0.0005573445 0.9988674 0.04757755 
0.054950714 0.99848914 0.00010255304 
0.11334914 0.9872017 -0.11218239 
0.14605072 0.9641642 -0.22148737 
0.15250026 0.9445697 -0.29074347 
0.17060192 0.9530131 -0.25032187 
0.18295002 0.9712149 -0.15254857 
0.15537228 0.9831347 -0.09646573 
0.12372132 0.99151605 -0.03986302 
0.13488436 0.99001074 0.041050367 
0.16243467 0.97890615 0.12392649 
0.108746246 0.9927015 0.052136697 
0.061098926 0.98111963 -0.183497 
0.05171584 0.92204744 -0.3836067 
-0.062048238 0.84652907 -0.5287142 
-0.106060565 0.8242127 -0.5562596 
-0.061848767 0.8589096 -0.50837904 
-0.06392561 0.9038249 -0.42310065 
-0.123241685 0.9312129 -0.34300753 
-0.19060996 0.94686323 -0.2590711 
-0.14063352 0.9567434 -0.25468475 
-0.019488638 0.9713718 -0.23676394 
0.007020934 0.9809119 -0.19432601 
-0.035964664 0.99412197 -0.102117464 
-0.013990077 0.99990064 -0.0017638579 
0.04449917 0.99676937 0.06686244 
-0.0031018194 0.99605316 0.088705696 
0.018423289 0.99910116 -0.038178403 
-0.030474491 0.9842388 -0.17419903 
-0.088320605 0.98251545 -0.1638991 
-0.043514073 0.9985498 -0.031699345 
0.010400768 0.9999294 0.0057375925 
0.0362061 0.99931246 -0.007987071 
0.10163347 0.99102217 -0.08686604 
0.17265877 0.9614447 -0.21404043 
0.20219444 0.92184585 -0.33063242 
0.15054873 0.89132273 -0.42764366 
0.09789484 0.9103146 -0.4021741 
0.08790974 0.959472 -0.26774147 
0.05234215 0.9870683 -0.15151374 
0.017897742 0.9981826 -0.057543393 
0.0034518752 0.99989796 0.01386511 
0.04470851 0.99483615 0.09111654 
-0.0028745863 0.9982467 0.05912021 
-0.034798656 0.98849964 -0.14716488 
-0.0025567664 0.93048906 -0.36631095 
-0.081595324 0.83813214 -0.53932995 
-0.09759125 0.7873973 -0.6086718 
-0.059938952 0.80162704 -0.59481215 
-0.061313868 0.8641421 -0.49949875 
-0.076604284 0.9223699 -0.3786365 
-0.10119821 0.9590687 -0.26447362 
-0.07844833 0.96619296 -0.24559537 
-0.039146665 0.97236866 -0.23014525 
-0.051740166 0.98459065 -0.16704585 
-0.06777387 0.99635285 -0.051844485 
-0.016041974 0.9992424 -0.03545831 
0.055275384 0.9979887 -0.031037401 
-0.0124602 0.99240524 0.122378714 
0.016175302 0.99918187 -0.037066545 
-0.051897135 0.9835172 -0.17320684 
-0.12339906 0.98366666 -0.13104431 
-0.04592462 0.99863243 0.02498846 
0.0102818245 0.9979452 0.06324412 
0.031124363 0.998961 0.033290975 
0.103995375 0.9936197 -0.04364568 
0.1971742 0.96305376 -0.18343902 
0.25526738 0.8983822 -0.3574188 
0.19935505 0.8058519 -0.5575486 
0.080579795 0.7800465 -0.62051135 
0.005602529 0.89157087 -0.45284653 
-0.018342784 0.96358097 -0.26678705 
0.043660264 0.9870504 -0.15435497 
0.045935873 0.9971932 -0.059124548 
0.06343204 0.9979621 0.0069276183 
0.019856 0.9997709 -0.008003081 
-0.014306618 0.9899469 -0.14071439 
-0.024601107 0.9503733 -0.31013766 
-0.14190555 0.83830017 -0.52641773 
-0.18532386 0.71240044 -0.67686105 
-0.14370501 0.65926343 -0.73805195 
-0.077089265 0.70075536 -0.7092244 
-0.026181322 0.8236079 -0.5665551 
-0.015678555 0.91306955 -0.40750232 
0.01783732 0.94894296 -0.3149429 
-0.00043710097 0.96743083 -0.2531354 
-0.058957558 0.985554 -0.1587684 
-0.06340791 0.9978158 -0.018527688 
-0.022539966 0.99723625 -0.07079544 
0.0046655284 0.9867331 -0.1622843 
0.1857288 0.9723852 -0.14132176 
0.20222524 0.945164 -0.25645682 
0.08620927 0.9596155 -0.26778015 
-0.06194667 0.99283737 -0.10215931 
-0.02172227 0.9942416 0.10493772 
0.009169913 0.9839171 0.1783898 
0.03477822 0.98864913 0.14616239 
0.11594361 0.99271095 0.03289596 
0.21910582 0.9632546 -0.1553491 
0.2991014 0.85752076 -0.41856503 
0.32970184 0.5449888 -0.7708982 
0.19514841 0.17916696 -0.9642699 
0.01652995 0.47684538 -0.87883174 
-0.0572203 0.84874845 -0.5256919 
0.064523086 0.93515104 -0.34832376 
0.113611646 0.96645427 -0.23034465 
0.091373295 0.98905957 -0.11581124 
0.037986036 0.9962978 -0.07712201 
-0.012712326 0.99219084 -0.12408048 
-0.07177888 0.9707716 -0.22902028 
-0.16835396 0.87239605 -0.4588922 
-0.19231081 0.70160216 -0.6861276 
-0.1459506 0.5850518 -0.7977548 
-0.022211619 0.5682148 -0.8225806 
0.047960203 0.70314455 -0.7094277 
0.08631062 0.832618 -0.5470811 
0.13593842 0.911618 -0.38790917 
0.10504434 0.95264935 -0.28535047 
-0.0059725735 0.9855659 -0.1691874 
-0.025795357 0.9993791 -0.024001013 
-0.0015250357 0.99921393 -0.039613724 
-0.05841311 0.98700404 -0.14970331 
0.20067543 -0.30714476 -0.9302642 
0.40667164 0.31569412 -0.8572954 
0.28550497 0.7650504 -0.57722175 
-0.005838049 0.98700017 -0.16061346 
-0.011833394 0.9920331 0.12542048 
0.01627074 0.97377354 0.22693725 
0.05261799 0.97767425 0.20343162 
0.11057293 0.99230486 0.05572099 
0.19891404 0.9666406 -0.16136706 
0.3062223 0.82057697 -0.48257786 
0.37837252 0.21367161 -0.9006546 
0.15825257 -0.5688468 -0.80707467 
0.025813986 -0.42916632 -0.90285665 
-0.066619776 0.5385805 -0.8399363 
-0.00047936974 0.85682654 -0.5156045 
0.08234591 0.9310619 -0.35544735 
0.09236795 0.97587043 -0.19785109 
0.043799937 0.9905602 -0.1298935 
-0.020563573 0.9916366 -0.12741318 
-0.1395017 0.97354007 -0.18099505 
-0.25313738 0.912275 -0.3219872 
-0.27707082 0.8193375 -0.5019142 
-0.18641515 0.7370611 -0.6496079 
0.004284047 0.7257198 -0.68797714 
0.10216371 0.82039165 -0.5626012 
0.1351133 0.89629453 -0.42237493 
0.1508798 0.9358149 -0.3185685 
0.14983737 0.954146 -0.25914133 
0.072095916 0.97180116 -0.22451 
-0.008755631 0.97808784 -0.20800887 
-0.171614 0.9584856 -0.22771473 
-0.43261927 0.8691242 -0.23971604 
0.0933692 -0.90643764 -0.41188973 
0.33339116 -0.722252 -0.6059723 
0.52594286 0.024347547 -0.8501713 
0.06756991 0.93205726 -0.35595453 
0.010326056 0.99905103 0.04231298 
0.019871375 0.98154336 0.1902044 
0.051567275 0.98442584 0.16806783 
0.103926934 0.99422675 0.026691386 
0.20500228 0.967445 -0.14840558 
0.35217434 0.8071179 -0.4738503 
0.43551993 0.11298779 -0.89305997 
0.23957288 -0.7407837 -0.6275703 
0.15015344 -0.74088246 -0.65463513 
0.12834184 -0.040715232 -0.99089396 
0.06034945 0.6560777 -0.75227666 
0.1468866 0.88079906 -0.45013043 
0.18095808 0.96226245 -0.20323664 
0.09758614 0.9895582 -0.10607326 
-0.02752554 0.9941546 -0.10439896 
-0.18997887 0.96936125 -0.15571414 
-0.30172092 0.929643 -0.21149085 
-0.31551793 0.89003986 -0.32905537 
-0.16511385 0.88416386 -0.4370261 
0.0005635641 0.90945053 -0.41581208 
0.03844732 0.9487058 -0.31381387 
0.024753306 0.9702455 -0.24085464 
0.03140662 0.9839494 -0.17566247 
0.07732046 0.98415637 -0.15955491 
0.1021039 0.94973415 -0.2959392 
0.01283423 0.76481634 -0.6441207 
-0.3795325 -0.3849285 -0.84129965 
-0.30316865 -0.87975806 -0.3662165 
0.03699364 -0.9854131 -0.16611058 
0.14319867 -0.94823986 -0.28343508 
0.2625602 -0.6821098 -0.682487 
0.09502793 0.7548869 -0.6489342 
0.063203424 0.9922287 -0.1071806 
0.040425636 0.99044836 0.13182546 
0.03431039 0.9902043 0.13534552 
0.06339603 0.9977964 0.019579843 
0.19259593 0.97731066 -0.08815235 
0.38529253 0.84624684 -0.36798906 
0.50849247 0.3209497 -0.79901606 
0.46115586 -0.49591357 -0.7358023 
0.46956858 -0.5234584 -0.710983 
0.49266303 0.04134302 -0.86923754 
0.3239412 0.6854397 -0.65210015 
0.25749633 0.90614915 -0.33554363 
0.224071 0.9640795 -0.14262897 
0.110239685 0.9890955 -0.09765887 
-0.039449524 0.994577 -0.096231386 
-0.19624819 0.97628754 -0.09137424 
-0.27175492 0.95842105 -0.08705503 
-0.29337543 0.9363827 -0.19266097 
-0.13739975 0.9570239 -0.25539488 
-0.017743623 0.979383 -0.20123172 
-0.031570803 0.98481536 -0.17071053 
-0.08653478 0.99019545 -0.10965788 
-0.071555205 0.99736947 -0.011583906 
0.004792287 0.998968 -0.045167614 
0.067958936 0.9294664 -0.36259302 
-0.03587484 0.3981626 -0.91661316 
-0.27815163 -0.7993497 -0.53260845 
-0.15401869 -0.9797138 -0.1282159 
0.003122195 -0.9897518 -0.14276382 
0.013186148 -0.9705794 -0.24042009 
-0.00070555747 -0.8113632 -0.58454204 
0.08080391 0.5243702 -0.84764767 
0.03832599 0.98067933 -0.19183117 
-0.00012708647 0.9944447 0.10525994 
-0.012204621 0.9963867 0.084052056 
0.009160612 0.9995065 -0.030049685 
0.10286735 0.99322647 -0.05403225 
0.2700626 0.9367195 -0.22276229 
0.41762558 0.70721054 -0.57047546 
0.58889866 0.32397982 -0.7404292 
0.68526447 0.389398 -0.6154525 
0.60858953 0.64041996 -0.46848807 
0.32874668 0.890136 -0.3155685 
0.2145347 0.95688 -0.19584604 
0.19039847 0.9706081 -0.14720228 
0.101773664 0.9852246 -0.13774864 
0.0045858426 0.99525124 -0.097231396 
-0.081818864 0.9958684 -0.039395943 
-0.09766966 0.9941918 -0.045202 
-0.12434213 0.98026776 -0.15366958 
-0.028315425 0.98401725 -0.17580797 
0.06184686 0.99234796 -0.106867425 
0.019341819 0.99202883 -0.1245178 
-0.07075095 0.9913719 -0.11034475 
-0.07244433 0.9966043 -0.039137192 
0.016897652 0.9904474 -0.13685207 
0.09689763 0.792186 -0.60253805 
-0.16382864 -0.27847046 -0.9463691 
-0.09437017 -0.92919457 -0.3573398 
-0.016220655 -0.9978956 -0.062779464 
0.01329086 -0.9932804 -0.114966504 
-0.026280956 -0.9707212 -0.23876691 
-0.10980766 -0.804655 -0.58350044 
-0.08689876 0.2944873 -0.95169634 
-0.09005652 0.95649964 -0.27748576 
-0.10599694 0.9938561 0.031856842 
-0.043366533 0.9990589 0.00087759364 
0.051003154 0.9955517 -0.07921828 
0.08325614 0.9940381 -0.07040402 
0.12530765 0.9844115 -0.123418175 
0.24794789 0.92841697 -0.27670172 
0.43039563 0.82908833 -0.35689265 
0.40016073 0.87118053 -0.28445762 
0.3129158 0.92258185 -0.22566904 
0.1575394 0.9707923 -0.18095241 
0.16325627 0.9762163 -0.14265065 
0.17196155 0.9771458 -0.124961585 
0.1018415 0.98635 -0.12939152 
0.0900026 0.9908088 -0.10098312 
0.09061653 0.9940505 -0.060433533 
0.12435625 0.98766214 -0.095179826 
0.040247995 0.98755866 -0.15201336 
0.03161887 0.99199826 -0.122228175 
0.09581769 0.9934021 -0.063018985 
0.07738725 0.99299246 -0.08931501 
-0.041842163 0.9943064 -0.098000616 
-0.12227296 0.9897163 -0.07423595 
-0.08535511 0.9549252 -0.2843104 
-0.0018235762 0.4463536 -0.8948549 
-0.09626528 -0.6865875 -0.720646 
0.0011903299 -0.9585552 -0.28490445 
0.05703248 -0.99421686 -0.090995714 
0.060835887 -0.99309635 -0.100292295 
0.013694638 -0.95151013 -0.30731255 
-0.060054384 -0.6489908 -0.7584223 
0.010921608 0.44072348 -0.8975766 
-0.0605935 0.9617071 -0.2672974 
-0.10030448 0.99466425 -0.024127185 
-0.032811143 0.99761856 -0.060668577 
0.07863213 0.9919989 -0.09876835 
0.09191196 0.9919376 -0.08724709 
0.01880223 0.99188316 -0.12575482 
0.028609121 0.98869795 -0.14716671 
0.13045572 0.9862339 -0.10160781 
0.116893105 0.9889354 -0.09133895 
0.1131769 0.9856079 -0.1255708 
0.1075402 0.9822194 -0.15388364 
0.17947432 0.97628105 -0.12109586 
0.18195018 0.97775096 -0.10438989 
0.18576935 0.97370595 -0.13185813 
0.31559354 0.93435866 -0.16545326 
0.4172412 0.88569903 -0.20358527 
0.44869578 0.8379764 -0.31059247 
0.2774763 0.9192913 -0.2791242 
0.1535964 0.97859913 -0.13693789 
0.120543025 0.99057907 -0.06498149 
0.08209288 0.9947296 -0.061432224 
-0.05333806 0.99848694 -0.013381995 
-0.14691274 0.9891478 -0.0018149895 
-0.1326564 0.95085126 -0.279793 
-0.11163575 0.35530558 -0.92806005 
-0.14547753 -0.81177515 -0.56555945 
-0.04212401 -0.97396207 -0.22276323 
0.0052549844 -0.9944535 -0.10504603 
-0.011866708 -0.9973592 -0.071650624 
-0.08097201 -0.92377603 -0.3742746 
-0.10188099 -0.2201443 -0.97013235 
0.098268196 0.79671973 -0.59630615 
0.02329039 0.9912717 -0.12976216 
-0.057866607 0.99829245 -0.007988451 
-0.062171508 0.9952384 -0.07506807 
0.02611841 0.9931625 -0.11378165 
0.07583084 0.9908579 -0.11158165 
-0.019101376 0.98410356 -0.17656568 
-0.1232236 0.9808522 -0.15081455 
-0.0926266 0.99489975 -0.03993575 
-0.056012288 0.9976827 -0.03862741 
0.02900063 0.9951017 -0.0945076 
0.12149766 0.9845754 -0.12589529 
0.21284367 0.9715805 -0.10358069 
0.2625181 0.9555003 -0.13454944 
0.394613 0.8837608 -0.25149068 
0.66471314 0.64440745 -0.37801534 
0.77583146 0.3921162 -0.494298 
0.6660033 0.34696683 -0.66034365 
0.47368217 0.66880465 -0.5729971 
0.3019215 0.92303824 -0.23841962 
0.12149647 0.9899935 -0.07177418 
0.03220396 0.9988088 -0.036660496 
-0.023874626 0.997185 0.071078256 
-0.03575087 0.9952947 0.09005805 
0.009430367 0.9843214 -0.17613204 
0.08418286 0.5883762 -0.8041932 
-0.041358728 -0.80617267 -0.5902332 
-0.009766185 -0.9739182 -0.22668946 
-0.00827876 -0.9924998 -0.12196503 
-0.15114224 -0.98036104 -0.12668191 
-0.284466 -0.7960415 -0.5342259 
-0.010026713 0.41548356 -0.9095454 
0.05979926 0.93202156 -0.35743523 
-0.00040723602 0.9989165 -0.046537448 
-0.06370947 0.9977053 0.022923656 
-0.07945393 0.9950936 -0.058956787 
-0.022918232 0.98927164 -0.1442794 
0.0059392797 0.9813687 -0.19204232 
-0.11448109 0.9620756 -0.24759802 
-0.28553364 0.94032574 -0.18508969 
-0.27473015 0.95902884 -0.069188386 
-0.18602008 0.98026913 -0.06685106 
-0.029684765 0.99671835 -0.07530911 
0.12363537 0.9897308 -0.0717449 
0.24623856 0.9644024 -0.09640843 
0.32528818 0.9025256 -0.2821972 
0.43602392 0.6594147 -0.61241776 
0.5899689 0.015024119 -0.80728614 
0.5607871 -0.5155615 -0.6478536 
0.5369579 -0.4849292 -0.6903043 
0.591766 0.19992466 -0.7809245 
0.4642172 0.8103989 -0.35742995 
0.21240155 0.9741591 -0.07680913 
0.068003945 0.9973821 0.024583414 
0.019180162 0.9916628 0.1274244 
0.02085753 0.9927496 0.11837771 
0.059164684 0.9921708 -0.10998524 
0.12712218 0.7482438 -0.65113074 
0.24822108 -0.66871136 -0.7008648 
0.12070698 -0.9523128 -0.28023225 
0.020911675 -0.98918945 -0.14514454 
-0.30078867 -0.88660747 -0.35135946 
-0.39052477 -0.3300179 -0.859406 
0.023825599 0.78150964 -0.6234382 
0.086761355 0.9530011 -0.29027855 
0.05953506 0.98453563 -0.16475834 
0.009579123 0.9877232 -0.15592043 
0.004255943 0.9784355 -0.20650886 
0.031790648 0.95644075 -0.29019043 
0.010436812 0.9173661 -0.3979078 
-0.15376143 0.89099187 -0.4271896 
-0.31928805 0.88936895 -0.327228 
-0.31807473 0.92599136 -0.20339274 
-0.19853531 0.9701487 -0.13926692 
-0.033394977 0.99438715 -0.100394234 
0.09531973 0.99053204 -0.09879505 
0.18628807 0.9659455 -0.17957212 
0.1999739 0.8807844 -0.4292196 
0.14790185 0.64402866 -0.750568 
0.23991142 -0.039162196 -0.9700046 
0.22208528 -0.7335923 -0.6422776 
0.30628845 -0.7448454 -0.592784 
0.5680471 -0.076908 -0.8193947 
0.4888391 0.7494352 -0.44652367 
0.2588065 0.95989805 -0.10777264 
0.1215192 0.99094 0.057193372 
0.04120909 0.9847845 0.16882385 
0.008319221 0.9849197 0.17281184 
0.008717175 0.99959695 0.027017431 
0.093144305 0.9222335 -0.37524608 
0.5286742 0.041367274 -0.84781635 
0.31868502 -0.7266925 -0.60857046 
0.08720751 -0.91783565 -0.387263 
-0.40595496 0.8932571 -0.19311239 
-0.110858195 0.9718651 -0.20781891 
0.034484956 0.9827268 -0.18182096 
0.08187135 0.97311866 -0.21526101 
0.13506635 0.9541868 -0.2669921 
0.12100852 0.9397578 -0.31970644 
0.10738166 0.90667874 -0.40792528 
0.085568324 0.8342205 -0.5447514 
0.0010295177 0.73196214 -0.6813445 
-0.1912254 0.72675604 -0.6597413 
-0.2946882 0.8019829 -0.51959836 
-0.2785224 0.90072495 -0.33334637 
-0.15575507 0.9716352 -0.177948 
-0.031930782 0.99042696 -0.13429393 
0.032423582 0.99133086 -0.12732597 
0.091742784 0.98008776 -0.1761003 
0.12604663 0.9327553 -0.33775705 
0.054481413 0.8573535 -0.5118367 
0.02039633 0.6009465 -0.799029 
0.119326085 -0.4031244 -0.90733236 
0.23968327 -0.59720165 -0.76544255 
0.5073873 0.039869577 -0.86079544 
0.4286236 0.7654538 -0.47996068 
0.25223923 0.959497 -0.12546287 
0.12016413 0.98864764 0.09020271 
0.038703483 0.9774968 0.20736974 
0.0072253235 0.9773302 0.21159752 
-0.018736841 0.9942981 0.10497746 
0.00926093 0.98171693 -0.19012167 
0.3167818 0.7518892 -0.5781971 
0.42304733 0.32161307 -0.8471104 
0.24079117 -0.3730831 -0.8960071 
-0.051408805 0.99118495 -0.12210504 
0.03984631 0.9987287 -0.030875823 
0.014566624 0.999851 -0.009269244 
0.011758206 0.9876768 -0.15606482 
0.096974455 0.95066375 -0.2946768 
0.11009601 0.9095723 -0.40069577 
0.056535877 0.8392033 -0.54087114 
0.027974578 0.71209735 -0.70152324 
-0.025139587 0.5644108 -0.8251112 
-0.1454513 0.557355 -0.81743467 
-0.20525648 0.6629823 -0.71994746 
-0.19283621 0.8490844 -0.4918027 
-0.092239454 0.9668199 -0.2382252 
-0.022942984 0.9904497 -0.1359527 
0.0209943 0.99637383 -0.08245274 
0.076714136 0.9915132 -0.104960255 
0.1307497 0.96720743 -0.21774857 
0.09132819 0.9360929 -0.33969015 
0.016261943 0.8783535 -0.47773504 
0.15322725 0.48945978 -0.8584583 
0.33562565 0.10029844 -0.9366407 
0.46193594 0.44505137 -0.7671667 
0.38733247 0.8265689 -0.40835938 
0.247605 0.9604218 -0.12760042 
0.1037887 0.9930373 0.055722054 
0.0067132423 0.98896074 0.1480258 
-0.007923677 0.9853544 0.17033492 
-0.028232722 0.9953821 0.09174674 
-0.04050318 0.99204165 -0.11921796 
0.124970205 0.95964825 -0.25190812 
0.2153333 0.95064265 -0.2234062 
0.17938484 0.97789395 -0.10744513 
-0.0031420267 0.9892305 -0.14633265 
0.005149322 0.99838966 -0.0564952 
-0.025530383 0.99966115 -0.0050927307 
-0.040770646 0.9884202 -0.14616203 
4.8877864e-06 0.9652625 -0.2612825 
0.00245677 0.94272894 -0.33355102 
-0.039175745 0.91238713 -0.40744936 
-0.030558342 0.83046144 -0.5562374 
-0.053433962 0.70284843 -0.70932996 
-0.11883907 0.6412504 -0.75807345 
-0.17352463 0.6790746 -0.713265 
-0.14627622 0.8125292 -0.5642692 
-0.028799059 0.9435107 -0.330088 
-0.0063221036 0.98726255 -0.15897423 
0.01735916 0.999438 -0.028679222 
0.058223546 0.9982979 -0.0033497766 
0.056985736 0.99658823 -0.05970397 
0.0518513 0.9865817 -0.15481578 
0.016582167 0.9733952 -0.22853205 
0.0920155 0.8954194 -0.4356114 
0.18639173 0.74968934 -0.6349992 
0.2752639 0.77835786 -0.5642596 
0.29336208 0.8854572 -0.36042252 
0.20732935 0.9612311 -0.18179482 
0.08977086 0.995508 -0.030084267 
0.009822385 0.9991761 0.039380834 
-0.004722898 0.99796593 0.0635754 
-0.048296392 0.9986039 0.021395244 
-0.09878254 0.9854328 -0.13843513 
-0.02444396 0.98714274 -0.15796103 
0.017318375 0.99964416 -0.020289868 
-0.03686909 0.9917328 0.12290971 
0.056575827 0.99786663 -0.03257885 
-0.002659769 0.9997357 -0.022835853 
-0.04571272 0.998436 -0.032186292 
-0.043975 0.98756313 -0.15094818 
-0.04049623 0.9725543 -0.2291246 
-0.079538435 0.96309394 -0.25714517 
-0.10614024 0.95757145 -0.26793873 
-0.07155163 0.9303373 -0.35965663 
-0.028446572 0.8790316 -0.4759142 
-0.024250941 0.81072974 -0.5849182 
-0.065601215 0.7843604 -0.6168267 
-0.07013268 0.8270248 -0.5577737 
0.0029702464 0.9264514 -0.37640285 
-0.018469607 0.98805094 -0.15301721 
0.00819995 0.99908704 0.041928146 
0.048924875 0.99529815 0.083593786 
0.010563411 0.99981314 0.016188242 
0.024022529 0.99779505 -0.061870936 
0.05860041 0.9896933 -0.13066454 
0.13451953 0.9604067 -0.24397427 
0.17954624 0.90399826 -0.38800827 
0.21017094 0.8883186 -0.4083116 
0.24604218 0.9141167 -0.32226402 
0.1943184 0.95982814 -0.20241132 
0.08943683 0.99359643 -0.06904546 
0.018772587 0.99981236 -0.0047840243 
-0.00026461127 0.999995 -0.0031587742 
-0.04075399 0.99809456 -0.04633012 
-0.064657755 0.9828257 -0.17283854 
-0.015114049 0.9864811 -0.16317731 
0.010121226 0.999567 -0.027632082 
-0.031747073 0.9962694 0.080246985 
0.059994586 0.99536264 0.07519297 
-0.009913828 0.9998843 0.011542565 
-0.038642094 0.9956358 -0.084948115 
-0.0016852614 0.9825076 -0.18621513 
-0.02881305 0.970985 -0.2373986 
-0.14370841 0.95703 -0.25187606 
-0.19420518 0.94955164 -0.24624383 
-0.13027258 0.94087297 -0.31270963 
-0.05622832 0.92018694 -0.3874204 
-0.053777378 0.873608 -0.48364994 
-0.09819995 0.8357811 -0.54020995 
-0.06461217 0.8460144 -0.5292307 
0.048565228 0.92151237 -0.38530046 
0.06610799 0.98036224 -0.18579495 
0.11068902 0.993241 0.034933638 
0.14494665 0.982626 0.11591706 
0.11933018 0.991807 0.04559943 
0.12069524 0.9921452 -0.032875013 
0.15120305 0.9851004 -0.08194458 
0.19960946 0.97278744 -0.11764644 
0.21108739 0.95769525 -0.19560704 
0.18104713 0.95381093 -0.23972234 
0.16959861 0.9680642 -0.1846294 
0.1172959 0.98912835 -0.0886955 
0.038654275 0.99924886 0.0027743794 
-0.009063602 0.99948597 0.030754253 
-0.022988288 0.9997313 -0.0029782758 
0.0006669514 0.99845594 -0.055547398 
0.04538658 0.9880106 -0.14756426 
0.09782256 0.9848093 -0.14346257 
0.13941124 0.9890117 -0.04919889 
0.13265823 0.9910856 0.0123015 
-0.00050324295 0.99714494 0.075510494 
0.0025964011 0.9999962 -0.0009480813 
0.044503067 0.991662 -0.120937526 
0.0799886 0.9813303 -0.17490791 
0.030748459 0.9818943 -0.18691763 
-0.09593093 0.9694134 -0.22590928 
-0.13695411 0.9505015 -0.2789095 
-0.069385305 0.93942046 -0.33567098 
-0.03294279 0.9387218 -0.34309807 
-0.08410096 0.9229701 -0.37557068 
-0.14476429 0.8974865 -0.41660714 
-0.079361744 0.899157 -0.43037006 
0.082289025 0.94359046 -0.32072657 
0.17318146 0.9687792 -0.17741206 
0.24257863 0.96982586 -0.02436395 
0.27452314 0.95963776 0.061093073 
0.24489869 0.9680696 0.05353414 
0.21496195 0.9766219 0.0010654113 
0.19233486 0.9803664 -0.043463707 
0.17109679 0.98329794 -0.062057976 
0.1347567 0.986564 -0.09237041 
0.06382644 0.99505514 -0.07610179 
0.032294 0.9994451 -0.008174137 
-0.008713479 0.9992956 0.036501568 
-0.06394043 0.99443465 0.083734535 
-0.084303856 0.9930078 0.08263542 
-0.092503145 0.9950258 0.03697297 
-0.041250948 0.9988034 -0.026271999 
0.038375296 0.99500096 -0.09219876 
0.12816642 0.9864741 -0.10218839 
0.20296583 0.9771665 -0.06285405 
0.20344184 0.9783195 -0.038760364 
-0.027933273 0.99860823 0.044737883 
0.04742854 0.9984108 -0.030438067 
0.12761962 0.9810743 -0.1456248 
0.12564705 0.97938716 -0.15815726 
0.07035478 0.9908665 -0.11503812 
0.0011369692 0.98906726 -0.14746065 
0.007337406 0.9685346 -0.24877088 
0.072481595 0.9512519 -0.29977718 
0.059311874 0.956907 -0.2842731 
-0.025468655 0.96067536 -0.27650374 
-0.09445534 0.9519183 -0.2914273 