# OOMMF OVF 2.0
# Segment count: 1
# Begin: Segment
# Begin: Header
# Title: m
# meshtype: rectangular
# meshunit: m
# xmin: 0
# ymin: 0
# zmin: 0
# xmax: 1.6e-07
# ymax: 1.6e-07
# zmax: 5e-09
# valuedim: 3
# valuelabels: m_x m_y m_z
# valueunits: 1 1 1
# Desc: Total simulation time:  1.3152884475955692e-11  s
# xbase: 2.5e-09
# ybase: 2.5e-09
# zbase: 2.5e-09
# xnodes: 32
# ynodes: 32
# znodes: 1
# xstepsize: 5e-09
# ystepsize: 5e-09
# zstepsize: 5e-09
# End: Header
# Begin: Data Text
-0.007962784 -0.9973757 -0.071959935 
0.016742432 -0.9951674 -0.096755855 
0.066667296 -0.93761355 -0.34122765 
0.049040124 -0.4524132 -0.8904592 
0.0008451128 0.79806775 -0.6025671 
-0.40780324 0.8692841 -0.2793595 
-0.8495368 0.5105678 0.13269477 
-0.5514336 -0.47839394 0.68341804 
-0.38853145 -0.50372434 0.7715602 
-0.13941549 -0.19354899 0.9711345 
-0.018463535 0.25912166 0.96566826 
-0.34636533 0.6228479 0.70149237 
-0.5791428 0.692261 0.43054438 
-0.35755527 0.8773536 0.32000765 
-0.09206986 0.99158984 0.09095551 
-0.033177722 0.9961373 -0.08130108 
0.13025226 0.983668 -0.12422436 
0.18824805 0.95292205 -0.23770252 
0.028122388 0.9899482 -0.1386061 
-0.055940505 0.998423 -0.004725431 
-0.22045721 0.97493035 -0.03015961 
-0.28518203 0.95741177 -0.04509891 
-0.46771595 0.8834664 0.026997207 
-0.89297795 0.4358921 0.11219836 
-0.9264261 -0.24089438 0.28931755 
-0.7017904 -0.67976165 0.2131067 
-0.50689507 -0.8540113 0.11714136 
-0.45844674 -0.88828665 -0.027809035 
-0.56186146 0.78586483 -0.2583182 
-0.089517385 0.99529326 -0.037120324 
0.12820424 0.9713085 0.20030852 
0.184732 0.9373202 0.29547432 
0.0064517846 -0.97890127 -0.20423207 
0.055506956 -0.9702427 -0.23568694 
0.15292533 -0.8010305 -0.5787608 
0.33941022 0.36680707 -0.86617166 
0.1071056 0.9172488 -0.38364455 
-0.28060773 0.93831354 -0.20205705 
-0.76438415 0.63090247 0.1329623 
-0.7805195 -0.1001957 0.6170496 
-0.73448867 0.03655375 0.67763585 
-0.51723504 0.47128007 0.7143971 
-0.31947485 0.689353 0.6501756 
-0.4051071 0.7902102 0.45984378 
-0.4820742 0.79623437 0.36553434 
-0.31180522 0.8943757 0.32073292 
-0.03130216 0.9919665 0.12256692 
0.06396935 0.99794596 0.0034410257 
0.19742842 0.98026764 -0.009871196 
0.18815634 0.97243357 -0.13773231 
0.028938588 0.98030657 -0.19535021 
0.025265815 0.99001724 -0.13866343 
-0.07309506 0.9930411 -0.09233931 
-0.16723062 0.985798 -0.015369348 
-0.409039 0.90314066 0.13047615 
-0.76085806 0.6126087 0.21402234 
-0.9203896 0.11794038 0.37279102 
-0.8389482 -0.46420795 0.28403708 
-0.7606227 -0.644982 0.073834516 
-0.7945289 -0.5962805 -0.114776 
-0.63888127 0.72593105 -0.25466615 
-0.16648413 0.98242724 -0.08437808 
0.07169582 0.9927455 0.096519865 
0.14130774 0.97799826 0.15346514 
0.16432843 -0.9101438 -0.3803084 
0.24954681 -0.86626834 -0.43278825 
0.21274571 -0.447278 -0.8687242 
0.17036933 0.7997119 -0.5757041 
0.07640551 0.95887864 -0.27333853 
-0.09054039 0.97386485 -0.20830205 
-0.43747976 0.8902452 -0.12678748 
-0.6754617 0.73357135 0.07499694 
-0.51704025 0.8441862 0.14148861 
-0.3768819 0.90345865 0.20426083 
-0.30851546 0.9142876 0.26248133 
-0.31926814 0.9092293 0.26715156 
-0.35235468 0.88565826 0.30241653 
-0.2817763 0.9144113 0.29060996 
-0.047499605 0.9921241 0.115903676 
0.06065001 0.9981018 0.010699527 
0.15730414 0.9875322 0.005965352 
0.14234708 0.982387 -0.121049434 
0.10125134 0.96476907 -0.2428351 
0.19858466 0.9530971 -0.22840783 
0.101716444 0.9826744 -0.1549347 
-0.06411832 0.9969347 -0.044835072 
-0.32923374 0.93946725 0.09490274 
-0.5896057 0.7961992 0.13576463 
-0.75882065 0.57182723 0.31177717 
-0.8675079 0.25463125 0.42730924 
-0.90120476 0.40409285 0.1566494 
-0.7803868 0.6242372 0.036395047 
-0.40702003 0.91090757 -0.067691796 
-0.08282091 0.99329406 -0.08067082 
0.11224471 0.99351704 -0.018028937 
0.19784695 0.9802056 -0.0073212697 
0.68101245 -0.56963766 -0.46014673 
0.7224181 -0.3627209 -0.5886813 
0.43260178 0.4926383 -0.7550916 
0.14263992 0.9552612 -0.25909466 
0.08855959 0.98617613 -0.14004974 
0.050876126 0.9881066 -0.14511052 
-0.15324958 0.97549975 -0.15784447 
-0.29457018 0.95166075 -0.08700668 
-0.19313994 0.98082995 0.025878353 
-0.19350898 0.97795415 0.07848668 
-0.22632028 0.96943337 0.094754025 
-0.30140182 0.95264024 0.04041773 
-0.25666896 0.96166795 0.09651832 
-0.18739192 0.96114534 0.20269173 
-0.06461608 0.98822826 0.13867155 
-0.011336455 0.9991235 0.04029653 
0.027225938 0.99956596 0.011259771 
0.06402784 0.9904737 -0.121911325 
0.11014707 0.96717626 -0.22899294 
0.20759857 0.9574586 -0.2004395 
0.10014281 0.9879316 -0.11816336 
-0.018498044 0.99975115 0.012466603 
-0.13974653 0.9811291 0.13362855 
-0.27067292 0.9556704 0.11588916 
-0.38436893 0.9186394 0.09144545 
-0.47987735 0.867109 0.1335654 
-0.388481 0.92145187 0.0030270482 
-0.26256487 0.9643521 0.032938574 
-0.09185502 0.9956511 0.015545512 
0.06410236 0.9957513 -0.066109136 
0.16093244 0.9864426 -0.03212256 
0.25062034 0.96802354 0.010949886 
0.9297871 0.10671175 -0.35229045 
0.8307162 0.2411388 -0.5017597 
0.53901917 0.70601904 -0.45934242 
0.24378589 0.9575016 -0.15414004 
0.11210655 0.9913571 -0.06814235 
0.07424635 0.99249095 -0.09720709 
-0.06834431 0.9861771 -0.15094335 
-0.17489922 0.9715959 -0.15941083 
-0.14198755 0.987612 -0.06679936 
-0.14656554 0.98874867 0.029911526 
-0.15866831 0.98295337 0.092882 
-0.18699494 0.98226225 -0.013916103 
-0.08838518 0.9960841 0.0021636009 
-0.051107112 0.99414957 0.09515658 
-0.047328975 0.9958406 0.07785572 
-0.050769582 0.99832535 0.027730362 
-0.07553286 0.99692905 0.020671671 
-0.041356657 0.9938673 -0.102554806 
-0.013735267 0.986233 -0.16479024 
0.054341286 0.9934349 -0.10066926 
0.0046938956 0.9995641 -0.029146098 
-0.0027790312 0.9979895 0.06331907 
-0.022469591 0.9917508 0.12619688 
-0.09037524 0.9942885 0.05677067 
-0.13757382 0.98490155 -0.10508269 
-0.13046646 0.9842449 -0.11933365 
-0.046680402 0.990747 -0.12744172 
0.012799528 0.99980867 -0.014788171 
0.077158354 0.9967706 0.022247836 
0.13611604 0.9891158 -0.05587905 
0.13233757 0.9911612 -0.009290644 
0.18723726 0.9780444 0.09149527 
0.40345925 0.9073603 -0.117974006 
0.4462312 0.8839418 -0.1397306 
0.36455035 0.92930424 -0.059133787 
0.24756974 0.96663225 0.06581246 
0.15464094 0.9842688 0.085446976 
0.06483822 0.9978468 0.009896454 
-0.06687716 0.9923544 -0.10373177 
-0.097443715 0.9820801 -0.16131812 
-0.04248274 0.99489033 -0.091588646 
-0.008081899 0.9976201 0.06847443 
0.016332883 0.9942867 0.10548505 
0.04755282 0.99750715 -0.052138 
0.09248922 0.9933805 -0.06812465 
0.08889184 0.99603546 -0.0033938014 
0.045965265 0.9979749 0.043969937 
-0.021746133 0.99822617 0.055423576 
-0.098387405 0.9936427 0.05471977 
-0.073355496 0.99524605 -0.064064845 
-0.08920248 0.9895511 -0.11327619 
-0.07373415 0.9969432 -0.025839392 
-0.07438197 0.9957498 0.054312706 
-0.007584919 0.9937154 0.11167963 
0.0025017164 0.9943643 0.10598767 
-0.066691436 0.99776316 0.0045821457 
-0.09947965 0.9816446 -0.16272007 
-0.026947852 0.9814629 -0.18974881 
0.06027344 0.9824546 -0.17649391 
0.104541175 0.9906958 -0.08713896 
0.12015499 0.99207926 -0.03662854 
0.12696742 0.98940426 -0.070417576 
0.07929064 0.996836 -0.005571081 
0.109586485 0.9875885 0.112516 
0.048554078 0.9979302 -0.04216539 
0.08487769 0.9962378 -0.017492564 
0.1372385 0.98768604 0.07511242 
0.20958692 0.9661386 0.15049745 
0.19241323 0.9704328 0.14573096 
0.029215835 0.99703604 0.07117434 
-0.13086829 0.99105966 -0.025968065 
-0.11679329 0.9928381 -0.025139552 
-0.024222981 0.99856055 0.0478567 
0.047682516 0.9894361 0.13690373 
0.11516644 0.9933457 0.0011163418 
0.13563052 0.9675147 -0.2133534 
0.12880906 0.96376866 -0.23357703 
0.13266538 0.97833914 -0.15891042 
0.09265399 0.9952082 -0.031240858 
-0.035356246 0.9989233 0.030037537 
-0.123406105 0.98973966 0.072016984 
-0.084375955 0.996323 0.014872801 
-0.10083336 0.99455124 -0.02646688 
-0.125819 0.9902995 0.05896202 
-0.14128938 0.98125917 0.13102637 
-0.091009356 0.9794132 0.18018627 
-0.043954525 0.99588794 0.07921592 
-0.08217602 0.99624026 -0.027432775 
-0.122974515 0.9891322 -0.080589965 
-0.05778158 0.9967071 -0.056889117 
0.024489554 0.9966368 -0.07820091 
0.087009214 0.993189 -0.07749307 
0.114829615 0.9906974 -0.07302636 
0.07654636 0.9934552 -0.08477948 
0.0089074625 0.9999588 -0.0017916858 
0.035261095 0.99315375 0.11136557 
-0.10428739 0.98998064 -0.095197715 
-0.05762997 0.99317604 -0.10139139 
0.08070494 0.99615943 -0.03395775 
0.20383726 0.9782258 0.039046537 
0.17311741 0.9817329 0.07893623 
-0.00583578 0.9979027 0.06446979 
-0.15678358 0.9873015 0.025586277 
-0.16322008 0.98354197 0.07748918 
-0.04377108 0.98945785 0.13804796 
0.05026177 0.9944032 0.092930615 
0.08594454 0.9894983 -0.1162185 
0.0046413657 0.9684854 -0.24902737 
-0.012652997 0.9820992 -0.18793924 
0.042956483 0.99357045 -0.10475012 
0.06019581 0.997893 -0.024209501 
-0.0702317 0.9973977 0.016290618 
-0.1577642 0.9862713 0.048780046 
-0.15247871 0.9871085 0.048651908 
-0.19119675 0.9812924 0.02256197 
-0.32839406 0.93975496 0.09496294 
-0.5084282 0.83415246 0.21375342 
-0.5494786 0.7899033 0.27226108 
-0.37308952 0.92479503 0.07455412 
-0.2533812 0.9665939 -0.03865711 
-0.20514545 0.97872996 0.0017789769 
-0.08524535 0.993225 0.07897752 
0.013249627 0.998706 0.04910092 
0.02820467 0.9996018 0.0009577675 
0.033028636 0.9984203 -0.045455158 
-0.0070582773 0.9957289 -0.09205538 
-0.048005126 0.99676174 -0.06450977 
-0.03144777 0.999467 0.008763505 
-0.18302532 0.97244436 -0.14440836 
-0.1221343 0.97521317 -0.1845059 
0.056088906 0.9891311 -0.135918 
0.17179817 0.9834963 -0.056749295 
0.13578644 0.99072564 -0.0049787653 
0.03349066 0.9993423 0.013902267 
-0.071128845 0.99703574 0.029333223 
-0.12284646 0.99018687 0.066624664 
-0.045063257 0.9942764 0.096869685 
0.05949748 0.9982263 0.002095849 
0.19459124 0.9769222 -0.08807561 
0.039955422 0.98415846 -0.17273006 
-0.14476983 0.98261476 0.116232306 
-0.08850143 0.96692413 0.23921798 
0.02651171 0.9912312 0.12945278 
-0.046569206 0.9980543 0.0414601 
-0.10029435 0.9941617 0.039794277 
-0.1604911 0.98115164 0.10762993 
-0.2722812 0.95141363 0.14378849 
-0.49642697 0.8510584 0.17105517 
-0.8763816 0.42782038 0.2211902 
-0.9816975 0.028497906 0.18830308 
-0.8776804 0.4761261 -0.05459895 
-0.59916276 0.79427856 -0.10062573 
-0.42916638 0.90257484 -0.03427655 
-0.24825904 0.96706337 0.056178678 
-0.09838045 0.9951145 -0.008270386 
-0.08071029 0.9903629 -0.11254908 
-0.07755204 0.9805772 -0.18015024 
-0.083308265 0.9858894 -0.14519656 
-0.098326944 0.9913388 -0.087058745 
-0.09174217 0.9950525 -0.038130425 
-0.2769078 0.9435156 -0.18193547 
-0.20473419 0.95845324 -0.19862364 
-0.05470025 0.97615623 -0.21006414 
0.060032748 0.9827271 -0.1750532 
0.07106671 0.9886878 -0.1320836 
0.05775536 0.9947442 -0.0845487 
-0.034552604 0.998879 -0.03235748 
-0.13001053 0.991488 0.006987067 
-0.14883435 0.98554677 0.08090701 
-0.09105945 0.9519787 0.2923097 
0.3130532 -0.0027360546 0.94973165 
0.517987 -0.6317096 0.576743 
0.34501636 -0.62598366 0.69936275 
-0.11877249 -0.18798517 0.97496396 
-0.16227065 0.80944514 0.5643287 
-0.15977667 0.97620565 0.14660823 
-0.11636364 0.99163055 0.05593249 
-0.16176581 0.98154455 0.10199068 
-0.33280805 0.93677086 0.10816317 
-0.5991971 0.8004158 0.017243667 
-0.9930619 0.10700906 -0.04875618 
-0.8477023 -0.5304698 -0.0016748179 
-0.9437455 -0.32127535 -0.07827246 
-0.9425114 0.31383526 -0.11480274 
-0.6802723 0.71669227 -0.15356384 
-0.40248173 0.9069626 -0.12420737 
-0.2568427 0.9565316 -0.1381278 
-0.2437856 0.953717 -0.17604694 
-0.1457819 0.9756427 -0.16391812 
-0.09451078 0.99037886 -0.10108234 
-0.24487612 0.96704984 -0.06964516 
-0.46534663 0.8770388 -0.11939664 
-0.49913752 0.8379571 -0.22065778 
-0.46442616 0.86037755 -0.20990224 
-0.33133903 0.89497864 -0.2987103 
-0.11543876 0.9555336 -0.27134752 
-0.04709724 0.9814659 -0.18575959 
-0.027505476 0.9945868 -0.10020208 
-0.08362273 0.99602985 -0.03052841 
-0.1517103 0.987534 0.04196149 
-0.2032535 0.9701822 0.13204035 
-0.33663484 0.81958336 0.4636379 
-0.20709257 -0.67451304 0.70862186 
-0.080491975 -0.9261878 0.3683711 
-0.062422603 -0.90111434 0.42906445 
-0.30564243 -0.6668699 0.6796083 
-0.542543 0.24560747 0.8033207 
-0.42554188 0.87264496 0.23959324 
-0.23530619 0.96871704 0.07885615 
-0.15671442 0.98089015 0.11530519 
-0.25602448 0.9604275 0.1096833 
-0.49677634 0.86787623 0.0020391038 
-0.9174092 0.37043867 -0.14538124 
-0.8869227 -0.44750282 -0.11449627 
-0.87799245 -0.4742458 -0.064964 
-0.9993213 -0.034533877 -0.012822793 
-0.7961944 0.59587234 -0.10493242 
-0.48566008 0.86756253 -0.10709601 
-0.41715094 0.90280044 -0.104577094 
-0.41167223 0.9073091 -0.0855354 
-0.24097069 0.9696253 -0.04195301 
-0.2039758 0.97576 -0.079287566 
-0.5842241 0.8020784 -0.12390446 
-0.90994626 0.009015372 -0.41462833 
-0.7722297 -0.53974825 -0.33516148 
-0.78481144 -0.3259063 -0.52712053 
-0.68452436 0.38122702 -0.6213634 
-0.22877869 0.925838 -0.3008064 
-0.110185 0.9898287 -0.08999131 
-0.07660633 0.9970563 -0.0032063562 
-0.07712965 0.9963418 0.036796402 
-0.1100172 0.9893542 0.09526043 
-0.20007402 0.95878327 0.20175506 
-0.48042384 0.6900902 0.5412656 
-0.37368253 -0.72637194 0.57684076 
-0.24388722 -0.9180515 0.31257093 
-0.20023052 -0.9452541 0.25768656 
-0.34139535 -0.8435599 0.4145552 
-0.64159036 -0.32866904 0.69306463 
-0.67655766 0.66647995 0.3131681 
-0.4114247 0.90156376 0.1338386 
-0.2659359 0.95700014 0.11588388 
-0.2854449 0.95057654 0.12217006 
-0.417024 0.90062463 0.12233664 
-0.6736054 0.7228478 0.15410045 
-0.96688396 0.22343275 0.123342276 
-0.9998907 -0.010567454 0.010345779 
-0.97001827 0.24261 -0.014317365 
-0.72237283 0.6914637 -0.0074550905 
-0.47870564 0.8779727 0.0022138904 
-0.4362833 0.8991691 -0.033938896 
-0.40867817 0.91247123 -0.019454064 
-0.29120114 0.95608646 -0.033176083 
-0.43114677 0.8987534 -0.079717144 
-0.98808676 0.15026385 0.033248767 
-0.72409075 -0.6716289 0.15686695 
-0.29351524 -0.9468893 -0.13133796 
-0.31602764 -0.8859439 -0.33945554 
-0.36992025 -0.44030842 -0.81810004 
-0.1024786 0.930498 -0.3516696 
-0.024032839 0.9993525 -0.026778342 
-0.021516792 0.9983468 0.05329903 
-0.048914947 0.9938918 0.0989275 
-0.091366775 0.9826563 0.16136554 
-0.1626348 0.93104434 0.3266595 
-0.38620216 0.6270324 0.6765192 
-0.50016844 -0.475024 0.72400534 
-0.38267133 -0.822992 0.41981745 
-0.44246727 -0.8335855 0.33069322 
-0.6258822 -0.620114 0.47300115 
-0.7887944 0.044089116 0.61307395 
-0.603904 0.74148124 0.29241338 
-0.40011886 0.90335053 0.15447569 
-0.27412164 0.95970696 0.06180603 
-0.28245917 0.95825404 0.044339787 
-0.40065926 0.9106685 0.10077257 
-0.46748295 0.8500614 0.24260113 
-0.57447684 0.7668668 0.2861674 
-0.6467917 0.73160726 0.21543297 
-0.547259 0.83189285 0.091988 
-0.37926018 0.9191481 0.10643605 
-0.31379816 0.9467147 0.07254052 
-0.3406154 0.9401866 -0.005499052 
-0.33404556 0.94177556 0.038373563 
-0.22290207 0.96771234 0.117675655 
-0.3866873 0.8987596 0.20664984 
-0.90155166 -0.389623 0.18814473 
-0.3591488 -0.9121558 0.19744344 
-0.057495296 -0.99798083 -0.026994092 
0.018560601 -0.98600584 -0.16567431 
0.14659466 -0.8098921 -0.5679657 
0.07159603 0.9253272 -0.37234876 
0.08219274 0.9931813 -0.082675666 
0.07783702 0.9969092 -0.0106557645 
0.023574643 0.9988911 0.040754963 
-0.05483179 0.99629724 0.06622162 
-0.14284512 0.9728431 0.18213058 
-0.30691776 0.8252278 0.47413144 
-0.5418204 0.20413719 0.8153273 
-0.6580345 -0.45134988 0.60272205 
-0.84467465 -0.29866746 0.44420984 
-0.7924894 0.28828615 0.5374491 
-0.5593581 0.71500957 0.41938052 
-0.3515112 0.9062633 0.23479106 
-0.301895 0.9421379 0.14572427 
-0.2897689 0.9565693 -0.031767324 
-0.31267756 0.94360757 -0.108800486 
-0.39190382 0.91884196 -0.04626836 
-0.38084877 0.91607416 0.12554842 
-0.30620244 0.9299706 0.20345703 
-0.27419367 0.94727916 0.16577145 
-0.19271487 0.9805526 0.037115585 
-0.12691346 0.989956 0.062290832 
-0.1497223 0.9841102 0.09544883 
-0.2177454 0.9738519 0.06480315 
-0.23369516 0.95901364 0.16024847 
-0.086793125 0.89361596 0.44036067 
0.01956615 0.5174417 0.8554948 
-0.39632827 -0.8127427 0.427052 
-0.17460115 -0.9824313 0.06590356 
0.06981881 -0.99501806 0.0711655 
0.18991515 -0.97772473 -0.08936726 
0.4273125 -0.8171202 -0.3869352 
0.14568792 0.9680792 -0.203955 
0.08809485 0.9882835 -0.12463953 
0.0473198 0.9939163 -0.099455185 
-0.0029376277 0.9990826 -0.04272368 
-0.061185524 0.99803895 -0.013216807 
-0.089413814 0.9928182 0.079481855 
-0.2111227 0.9334586 0.28996938 
-0.46982136 0.62944704 0.618922 
-0.7105041 0.28323656 0.64417464 
-0.79360706 0.510939 0.3303471 
-0.60863876 0.7811547 0.13912712 
-0.45042834 0.89110446 0.05520179 
-0.31711262 0.94724995 0.046445094 
-0.26123354 0.9642452 0.04459138 
-0.27277452 0.95259637 -0.13473794 
-0.29341918 0.93165463 -0.21430108 
-0.32308647 0.93048203 -0.17268033 
-0.29806724 0.9543886 -0.01727369 
-0.20320022 0.9763454 0.073887065 
-0.12296674 0.9903073 0.064582266 
-0.036358885 0.9993085 0.0077813263 
-0.027316641 0.99837846 0.04994376 
-0.09855866 0.99055433 0.09533335 
-0.1746576 0.97852844 0.10943918 
-0.2381221 0.93302613 0.26974094 
-0.17309807 0.7280935 0.66326237 
0.028020246 -0.22969908 0.97285837 
-0.0895125 -0.85869366 0.5046116 
-0.13213861 -0.9409723 0.31162578 
0.1022019 -0.9768147 0.18811694 
0.20975824 -0.9739654 0.08598251 
0.48031616 -0.87675524 0.024427418 
0.09380103 0.97218984 0.21458863 
-0.0013364995 0.9998967 0.014315068 
-0.009770415 0.99852675 -0.0533759 
-0.025103265 0.99787724 -0.060090408 
-0.06478609 0.9961672 -0.05876889 
-0.07071211 0.9974877 0.0042615915 
-0.19759727 0.96982545 0.14280765 
-0.39728147 0.86628354 0.30285364 
-0.5439302 0.7892599 0.28497162 
-0.52089524 0.85337275 0.020571144 
-0.412524 0.9061148 -0.09370093 
-0.40371594 0.90779674 -0.113660045 
-0.33576307 0.94183683 -0.014374323 
-0.27071464 0.9623726 0.023506135 
-0.2790177 0.95253414 -0.12176954 
-0.28754956 0.94049174 -0.18108174 
-0.3313662 0.9288351 -0.16571634 
-0.33187586 0.94311523 -0.019803014 
-0.2211291 0.9739017 0.051162366 
-0.07692889 0.99667156 0.026977587 
0.026259936 0.9991788 -0.030856105 
-0.0021851868 0.99994606 -0.010156438 
-0.061116636 0.99807274 0.010756193 
-0.11698349 0.9925432 0.03424757 
-0.16789113 0.9752854 0.14363462 
-0.116829075 0.87669456 0.46664506 
0.3341474 -0.6890439 0.6430895 
0.146358 -0.9109369 0.38571146 
0.028146835 -0.93059874 0.36495724 
0.02377458 -0.9298205 0.36724487 
0.14000404 -0.9102816 0.38959774 
0.32066375 -0.6875688 0.65147835 
-0.124755666 0.87227744 0.4728299 
-0.17025076 0.9749877 0.14287645 
-0.11639748 0.9927371 0.03041051 
-0.06093523 0.99811316 0.0075497627 
-0.0087544685 0.99987674 -0.013041481 
0.016802395 0.9994056 -0.030103281 
-0.08511541 0.9957599 0.034895606 
-0.22895415 0.97096556 0.0693242 
-0.33512422 0.9421638 0.0043714247 
-0.3317227 0.9316601 -0.14822096 
-0.28039482 0.94399047 -0.17395611 
-0.2770352 0.9530443 -0.12230334 
-0.2730529 0.961756 0.021624202 
-0.33785474 0.94117504 -0.0066210176 
-0.4129326 0.9035301 -0.11454252 
-0.42388615 0.89976555 -0.10364573 
-0.52766454 0.84939575 -0.009855175 
-0.56189895 0.7905561 0.24349682 
-0.41064376 0.8707719 0.27042198 
-0.20376264 0.9710009 0.12505175 
-0.06853688 0.9976285 -0.0063427864 
-0.058310583 0.99632645 -0.06271741 
-0.023787815 0.99799526 -0.058648717 
-0.010165194 0.9987326 -0.049293824 
-0.0006134697 0.999876 0.015740111 
0.09741423 0.9733907 0.2074153 
0.4822054 -0.87595797 0.01325836 
0.2107221 -0.9740842 0.08219588 
0.10361863 -0.9771263 0.1857082 
-0.13822255 -0.9398719 0.31230664 
-0.099546805 -0.85614324 0.5070593 
0.008860255 -0.22581314 0.9741304 
-0.17974995 0.7241352 0.6658214 
-0.2400948 0.932721 0.26904652 
-0.17430079 0.97897065 0.10599933 
-0.096408114 0.9910559 0.092270255 
-0.028487733 0.99857056 0.04522682 
-0.040717103 0.9991657 0.0031526608 
-0.12878345 0.9896365 0.06351898 
-0.21038124 0.9744392 0.078791186 
-0.30192745 0.9532942 -0.008370431 
-0.3235782 0.93147403 -0.16629308 
-0.2908451 0.93285066 -0.21260004 
-0.27519637 0.95140356 -0.13819638 
-0.26868147 0.9622536 0.04334031 
-0.3274125 0.9434455 0.052075066 
-0.46383867 0.8843088 0.05340185 
-0.6214822 0.7726869 0.12928627 
-0.8085424 0.5068929 0.29886281 
-0.7417664 0.26662278 0.615382 
-0.5051763 0.61713225 0.6032783 
-0.23626436 0.9290353 0.28473228 
-0.10224176 0.99211067 0.07254718 
-0.06276816 0.9978123 -0.020756511 
-0.0022766548 0.9989738 -0.04523548 
0.047584947 0.9942543 -0.095886715 
0.08688729 0.98884845 -0.12095192 
0.14432506 0.96783626 -0.20606641 
0.4235723 -0.8156963 -0.39398727 
0.18859497 -0.97769326 -0.09245524 
0.07021631 -0.99513656 0.069087505 
-0.17823383 -0.98186 0.06468181 
-0.4046537 -0.80774635 0.42872036 
0.0060786963 0.52485526 0.8511698 
-0.08904005 0.8925662 0.44203785 
-0.23183848 0.95933676 0.16100968 
-0.21643189 0.9743094 0.06227785 
-0.1490781 0.98443514 0.093077265 
-0.12775727 0.98998904 0.059999432 
-0.1947049 0.9802967 0.033294596 
-0.27782267 0.9467799 0.16254997 
-0.31149745 0.9281261 0.20384127 
-0.3840375 0.9143784 0.12816985 
-0.39303106 0.91841066 -0.04526019 
-0.31248024 0.9432969 -0.112013206 
-0.29324964 0.95519465 -0.04009836 
-0.31120786 0.94008625 0.13923936 
-0.35902163 0.90309507 0.23563267 
-0.5600409 0.71682155 0.41535664 
-0.79355407 0.29088685 0.53446865 
-0.85338634 -0.28571466 0.43600357 
-0.66412276 -0.44816014 0.5984092 
-0.55167997 0.19983442 0.80976266 
-0.32457635 0.81812704 0.4746771 
-0.15400416 0.9715299 0.18003468 
-0.058167275 0.9963986 0.06169643 
0.02325673 0.998953 0.039396524 
0.077668145 0.996957 -0.0066687944 
0.08013717 0.9936692 -0.07873741 
0.069392055 0.92561704 -0.37204555 
0.14101218 -0.8092119 -0.5703437 
0.016479548 -0.98580885 -0.16706097 
-0.05790634 -0.99792284 -0.02823168 
-0.36380732 -0.910425 0.19690266 
-0.90390617 -0.3844984 0.18738902 
-0.392249 0.8966869 0.20516655 
-0.22449426 0.9672776 0.118221976 
-0.33102542 0.94273627 0.04087358 
-0.33745983 0.94132215 -0.0057855337 
-0.3111456 0.9477897 0.06987895 
-0.37720627 0.9204329 0.10256108 
-0.54543704 0.8336717 0.086545765 
-0.6472361 0.73242503 0.21127965 
-0.57851315 0.7641562 0.28528562 
-0.46980745 0.8483624 0.24405384 
-0.39966282 0.9112118 0.099813744 
-0.27816984 0.95981294 0.03715842 
-0.27240187 0.9609565 0.048577677 
-0.40353966 0.9043894 0.13869265 
-0.6105292 0.74237084 0.27593407 
-0.7981263 0.055476226 0.5999309 
-0.6248085 -0.61867154 0.47629827 
-0.43674266 -0.8351555 0.33432212 
-0.37221152 -0.8256192 0.4240419 
-0.4942757 -0.48738685 0.71982336 
-0.4169228 0.6111797 0.67278135 
-0.18146217 0.93098855 0.3167518 
-0.09404749 0.9840008 0.15131937 
-0.04673655 0.99425983 0.09624464 
-0.020791195 0.9981769 0.056662973 
-0.026256306 0.9993952 -0.022803115 
-0.10530948 0.93109804 -0.3492368 
-0.37163064 -0.442216 -0.8162939 
-0.31657222 -0.8859955 -0.3388128 
-0.2933857 -0.94665533 -0.13329872 
-0.72851974 -0.6678415 0.15246901 
-0.98775023 0.1523264 0.03385739 
-0.43416655 0.8973314 -0.07934702 
-0.29089332 0.9561585 -0.03379315 
-0.40645415 0.9135298 -0.01607696 
-0.43498683 0.89986676 -0.032038573 
-0.47599685 0.8794435 0.0024711082 
-0.717989 0.6960126 -0.007629997 
-0.9677219 0.2515245 -0.015806532 
-0.99990654 -0.010983698 0.00815268 
-0.9688666 0.21537131 0.12211761 
-0.6754582 0.7205715 0.15663016 
-0.4142928 0.9019874 0.12157374 
-0.27997246 0.9531449 0.114587374 
-0.26431236 0.95892143 0.10299787 
-0.4148832 0.9021574 0.11825382 
-0.68817574 0.6658169 0.28827435 
-0.66747606 -0.32747936 0.6687548 
-0.34853297 -0.8460099 0.40347475 
-0.197609 -0.9470696 0.25300187 
-0.23732778 -0.9207934 0.3095403 
-0.38235053 -0.7349021 0.56011343 
-0.5016283 0.6963016 0.51335496 
-0.20468463 0.96163404 0.1826588 
-0.10440467 0.9908907 0.085061334 
-0.07077243 0.9968523 0.035732795 
-0.07376546 0.9972756 0.00010618017 
-0.11029637 0.9900001 -0.08794564 
-0.22906034 0.9255474 -0.30148512 
-0.6852579 0.3759669 -0.6237552 
-0.7857103 -0.32730773 -0.5249087 
-0.7720908 -0.53702724 -0.33981988 
-0.91055906 0.0044564675 -0.41335505 
-0.5865938 0.8000296 -0.12593855 
-0.2069914 0.9751001 -0.07959 
-0.24177963 0.969472 -0.04082506 
-0.4139887 0.90653914 -0.082462855 
-0.41984102 0.90169317 -0.10335833 
-0.48581836 0.86761117 -0.105979346 
-0.79475516 0.5982496 -0.10228297 
-0.99952596 -0.028938597 -0.0105123725 
-0.8760178 -0.47765964 -0.06658829 
-0.8828665 -0.4556383 -0.11375723 
-0.92041594 0.36417642 -0.14216243 
-0.4951984 0.86877435 0.0031173942 
-0.2527791 0.9618373 0.10474657 
-0.15855882 0.98137516 0.1084531 
-0.23887275 0.9680976 0.075676605 
-0.4295247 0.8731132 0.23061198 
-0.56313384 0.25383624 0.78641444 
-0.31282896 -0.6778426 0.6653326 
-0.064550675 -0.9027136 0.42537215 
-0.08526123 -0.92539734 0.36928353 
-0.22342922 -0.6821557 0.69623494 
-0.34635636 0.82802606 0.44091985 
-0.2021831 0.9722307 0.11785432 
-0.14606541 0.9886911 0.033983868 
-0.077580534 0.99644655 -0.032796443 
-0.023360657 0.9947945 -0.09918811 
-0.044387307 0.9818187 -0.18455848 
-0.11360483 0.95591974 -0.27076074 
-0.33297226 0.89453405 -0.29822528 
-0.4654502 0.8605333 -0.20697485 
-0.49718934 0.838317 -0.22366816 
-0.46783763 0.87543684 -0.12140109 
-0.24566144 0.966611 -0.07289531 
-0.09599647 0.9900808 -0.1025911 
-0.14824836 0.9751446 -0.16466787 
-0.24827853 0.95243084 -0.17672929 
-0.2608571 0.9552828 -0.13924253 
-0.405593 0.905516 -0.12464021 
-0.6838228 0.7139823 -0.15038551 
-0.94342685 0.3132796 -0.108635694 
-0.9425568 -0.3237685 -0.08222437 
-0.8452524 -0.53435326 -0.0038833728 
-0.99357444 0.10213879 -0.04876143 
-0.5984391 0.8009992 0.016457187 
-0.3337901 0.93692416 0.103717625 
-0.16739878 0.98095983 0.098465584 
-0.12211304 0.9906977 0.060053945 
-0.15947512 0.9755669 0.15111892 
-0.1591232 0.80787176 0.5674708 
-0.11650199 -0.22451201 0.96748215 
0.33015698 -0.6439334 0.69017833 
0.4980441 -0.6450193 0.57957083 
0.2958107 0.009648796 0.95519793 
-0.09358595 0.954047 0.28466806 
-0.1474402 0.9862145 0.07511642 
-0.12653485 0.99195933 0.0024026497 
-0.029535118 0.998947 -0.035106793 
0.062578104 0.9943704 -0.08550705 
0.074895 0.98853457 -0.1311118 
0.06266204 0.98297745 -0.17271078 
-0.055750087 0.9765062 -0.20815282 
-0.20560543 0.9586083 -0.19696823 
-0.2772725 0.9431242 -0.18340349 
-0.09265118 0.9949082 -0.039667953 
-0.09739696 0.9912475 -0.08911977 
-0.08240492 0.9858417 -0.14603326 
-0.07721204 0.9802571 -0.18202876 
-0.08194171 0.98997825 -0.1150162 
-0.10015763 0.9949087 -0.011183598 
-0.250492 0.96659255 0.05433727 
-0.43161044 0.9014465 -0.033264916 
-0.59785956 0.79557425 -0.09811036 
-0.8736595 0.48291758 -0.059244756 
-0.9820914 0.03325707 0.18544681 
-0.87397254 0.4314786 0.22360303 
-0.49099025 0.8541935 0.17111987 
-0.2706535 0.952778 0.13769804 
-0.16530567 0.98110014 0.100581095 
-0.11085079 0.9930761 0.038883578 
-0.05482406 0.9974627 0.045415778 
0.023123387 0.9904981 0.13556826 
-0.08733785 0.96787 0.23579594 
-0.14217843 0.98541003 0.09355517 
0.072254844 0.9820295 -0.17434824 
0.2082807 0.9753812 -0.07246182 
0.06098044 0.9980808 0.0107826125 
-0.04798771 0.9938723 0.09957482 
-0.12409985 0.9901471 0.06486972 
-0.069275975 0.99725056 0.026309026 
0.037141785 0.9992352 0.012227386 
0.13913663 0.9902674 -0.0033864395 
0.173902 0.9833425 -0.05287307 
0.056420494 0.98951036 -0.1329889 
-0.12240716 0.97532815 -0.18371604 
-0.18482256 0.97184795 -0.14612448 
-0.0333174 0.99942213 0.00672846 
-0.04776422 0.996719 -0.06534436 
-0.0064757573 0.99581516 -0.09116021 
0.03457792 0.99838877 -0.044991925 
0.029409537 0.99956656 0.001364575 
0.014284312 0.9987594 0.047704767 
-0.08482559 0.9934096 0.07708592 
-0.20441099 0.9788845 0.0011849992 
-0.24991336 0.96748906 -0.038836554 
-0.36647865 0.9277017 0.071154036 
-0.54356974 0.79468215 0.27020785 
-0.50405294 0.8358897 0.2172994 
-0.32346472 0.9411128 0.0983732 
-0.18680008 0.9821661 0.02134384 
-0.15043445 0.98769295 0.042804353 
-0.16060428 0.986189 0.0404674 
-0.0769283 0.996991 0.009539491 
0.052138817 0.99824405 -0.028112652 
0.040810846 0.99292666 -0.11149511 
-0.0074915704 0.9797389 -0.20013905 
0.026033767 0.9681577 -0.2489838 
0.09854916 0.98963284 -0.104475036 
0.04944791 0.9935142 0.10239427 
-0.048170075 0.9890713 0.1393472 
-0.16303791 0.98391813 0.07296427 
-0.15350024 0.9879314 0.02072175 
-0.001524356 0.99795943 0.06383393 
0.17623287 0.9809073 0.08223652 
0.20490521 0.97782373 0.043296847 
0.0817232 0.99612695 -0.032442868 
-0.057690434 0.9931518 -0.10159424 
-0.10554224 0.98973864 -0.09632398 
0.033582997 0.9935397 0.10840228 
0.008372615 0.99996245 -0.0022573005 
0.07538872 0.99357164 -0.08445157 
0.11403952 0.9908314 -0.07244547 
0.08652115 0.99338245 -0.07553433 
0.02522369 0.9966926 -0.07725124 
-0.057146013 0.9967692 -0.05644107 
-0.12180192 0.9893836 -0.079274036 
-0.07951688 0.9964902 -0.026162937 
-0.04056398 0.9960838 0.078560434 
-0.08789123 0.97969174 0.1802204 
-0.14002709 0.98115313 0.1331581 
-0.1245967 0.9903188 0.061191563 
-0.09995062 0.99467474 -0.025143264 
-0.08359615 0.99639463 0.014473037 
-0.1220144 0.9900826 0.06963459 
-0.03400983 0.9990795 0.02614234 
0.09447276 0.9948873 -0.035695083 
0.13893501 0.97680223 -0.16295563 
0.1413384 0.9610252 -0.23760064 
0.15271403 0.9658108 -0.20949505 
0.120819084 0.9926184 0.010567431 
0.043290414 0.98913723 0.14047587 
-0.026703727 0.9986386 0.0448119 
-0.1127772 0.9931464 -0.03068625 
-0.12466071 0.9917796 -0.028860258 
0.034256626 0.9967141 0.07339964 
0.19397083 0.96952164 0.14967664 
0.20852281 0.9660633 0.15244675 
0.13644376 0.9878053 0.07499273 
0.084532075 0.9962872 -0.016319122 
0.04888028 0.99791783 -0.042082343 
0.10982819 0.9877929 0.11046777 
0.07876625 0.996875 -0.0060227206 
0.12534958 0.9895162 -0.0717314 
0.11808613 0.9923032 -0.03728356 
0.10248082 0.99098563 -0.08628599 
0.059649296 0.9825166 -0.17636137 
-0.027090576 0.9815002 -0.18953519 
-0.09964664 0.9818401 -0.16143301 
-0.066062376 0.9977919 0.0068665873 
0.0037649558 0.994247 0.10704559 
-0.005747476 0.99356437 0.11312316 
-0.07240141 0.9958004 0.056031972 
-0.07138846 0.9971408 -0.024779879 
-0.08808196 0.98960245 -0.11370447 