# OOMMF OVF 2.0
# Segment count: 1
# Begin: Segment
# Begin: Header
# Title: m
# meshtype: rectangular
# meshunit: m
# xmin: 0
# ymin: 0
# zmin: 0
# xmax: 1.6e-07
# ymax: 1.6e-07
# zmax: 5e-09
# valuedim: 3
# valuelabels: m_x m_y m_z
# valueunits: 1 1 1
# Desc: Total simulation time:  9.015884903460443e-11  s
# xbase: 2.5e-09
# ybase: 2.5e-09
# zbase: 2.5e-09
# xnodes: 32
# ynodes: 32
# znodes: 1
# xstepsize: 5e-09
# ystepsize: 5e-09
# zstepsize: 5e-09
# End: Header
# Begin: Data Text
0.15087938 -0.9736325 -0.17110004 
0.11968353 -0.9742309 -0.19118086 
-0.025334671 -0.9970366 -0.07263837 
0.16115618 -0.92994183 0.3305102 
0.7307017 -0.4691217 0.49598372 
0.6337563 0.76577777 -0.10925868 
0.29413453 0.9065864 -0.3026318 
0.18432282 0.9238017 -0.3355825 
0.01672555 0.94928306 -0.31397763 
0.021347728 0.93251026 -0.3605121 
0.22480337 0.9654696 -0.13165112 
0.2291189 0.9730641 0.025510661 
0.13014986 0.9900837 0.0528709 
0.041048624 0.9991111 -0.009597694 
0.02633222 0.99706775 -0.071851194 
-0.06104826 0.99778056 0.026592212 
-0.13783628 0.9904501 0.0031249677 
-0.05394784 0.9938336 -0.09687402 
-0.022808624 0.9993166 0.029091902 
-0.13386153 0.98072016 0.14236948 
-0.19639723 0.9769581 0.08355217 
-0.13755296 0.9904835 0.004660299 
-0.03668338 0.9992694 0.010725996 
-0.021420479 0.99113435 0.13112517 
-0.023114117 0.9388628 0.3435147 
-0.15683429 0.81129503 0.5632082 
-0.46172255 0.46810415 0.75345266 
-0.6224268 -0.10313321 0.7758534 
-0.7008289 -0.1986201 0.6851197 
-0.74349517 0.3818093 0.5490325 
-0.5249155 0.79523295 0.30342782 
-0.41032487 0.88982904 0.19959399 
0.09436594 -0.98392904 -0.15158767 
0.039560508 -0.9914217 -0.12457129 
-0.19153228 -0.9811171 -0.026919322 
0.03491134 -0.869847 0.4920848 
0.6379375 -0.28882277 0.7138749 
0.4534645 0.87775636 0.154641 
0.15115663 0.982778 -0.10629753 
0.024567824 0.9771841 -0.2109688 
-0.08749118 0.9645255 -0.24906994 
-0.011193032 0.95381254 -0.30019382 
0.20140098 0.97783285 -0.05727695 
0.21284689 0.9727234 0.09222466 
0.123861305 0.98688394 0.10353046 
0.054851998 0.996728 0.05936898 
0.055435445 0.9978426 0.03517378 
-0.024623515 0.994779 0.099037945 
-0.09548951 0.9953862 0.009386187 
-0.0011568813 0.99583733 -0.09114105 
0.063857056 0.99638903 0.055957653 
-0.007797641 0.98302406 0.18331121 
-0.08005427 0.9910687 0.10664989 
-0.0643283 0.99790514 -0.0068707536 
0.0032923091 0.9999492 -0.009530926 
-0.004888272 0.9924682 0.12240573 
0.00024374815 0.9541689 0.29926878 
-0.025057165 0.87510717 0.48328012 
-0.19747344 0.61994964 0.75938576 
-0.454889 0.08405144 0.8865729 
-0.6376123 -0.06387428 0.76770484 
-0.7156016 0.4427851 0.5402368 
-0.554617 0.79551476 0.24404193 
-0.43297982 0.88813215 0.15410924 
-0.13276853 -0.9273178 -0.3499347 
-0.31821942 -0.9312761 -0.17737332 
-0.7534278 -0.62977684 0.18901815 
-0.22970559 -0.043878205 0.9722706 
0.31746832 0.49355105 0.8097045 
0.19122553 0.91539305 0.35424337 
0.018259346 0.9962919 0.084077835 
-0.042471062 0.99561524 -0.083345905 
-0.050712936 0.9870342 -0.15228838 
0.07342512 0.9823327 -0.17213762 
0.2346592 0.97022676 0.059958447 
0.2282502 0.9566244 0.1810297 
0.15730403 0.9726012 0.17117979 
0.100802876 0.9860954 0.13211636 
0.08045273 0.98791236 0.13250121 
-0.005514597 0.99000764 0.1409062 
-0.054435346 0.998517 -0.0007924787 
0.06857664 0.9935502 -0.09030736 
0.16100416 0.9850117 0.061883923 
0.12168218 0.97732925 0.17326595 
0.042636145 0.995771 0.08137726 
-2.020962e-05 0.99922 -0.03949045 
0.04043028 0.9979678 -0.04925348 
0.06656056 0.9952159 0.07152018 
0.09263589 0.9768984 0.19258311 
0.09693825 0.94905096 0.29984227 
-0.004602753 0.85741156 0.5146109 
-0.30221933 0.6111865 0.7315153 
-0.47821552 0.46298927 0.7462915 
-0.5088541 0.69760245 0.50439906 
-0.43686342 0.8640899 0.24999802 
-0.37070218 0.91098225 0.18080747 
-0.72728866 -0.06547224 -0.6832018 
-0.8707529 0.07615841 -0.48578748 
-0.8173025 0.5761907 0.004588244 
-0.23782676 0.85231864 0.4658236 
0.10353578 0.8751551 0.47263527 
0.08949073 0.94699746 0.30852455 
0.022093382 0.99072707 0.13405861 
0.041852225 0.9991237 0.0005421761 
0.094811045 0.9943277 -0.048200127 
0.18681245 0.9816663 -0.03784852 
0.24232659 0.9598016 0.14162852 
0.1915202 0.957493 0.21570165 
0.12582487 0.97488993 0.18373273 
0.086884 0.98528224 0.14720775 
0.07381619 0.9864742 0.14635512 
0.010037374 0.9945316 0.10395299 
0.006592985 0.9995706 -0.028550591 
0.14002842 0.98754406 -0.07175494 
0.20669802 0.9766363 0.05880011 
0.14701623 0.9820129 0.1184774 
0.07423474 0.9971668 0.012150631 
0.029764509 0.9980256 -0.055309813 
0.056601774 0.9977893 -0.03482615 
0.11152549 0.9920463 0.05836447 
0.13292457 0.98161274 0.13699467 
0.07864014 0.98221093 0.17052108 
-0.059973538 0.9642943 0.25795266 
-0.29728705 0.8779483 0.37526974 
-0.39898607 0.79724944 0.45299393 
-0.39631552 0.85394937 0.33720097 
-0.32462254 0.932713 0.15705661 
-0.2507196 0.9671556 0.041830633 
-0.29913175 0.8192439 -0.48924395 
-0.36645964 0.8555463 -0.36571556 
-0.34243292 0.9308441 -0.12754989 
-0.14890267 0.9833018 0.10462044 
0.01987609 0.9769704 0.21244763 
0.0846083 0.9774428 0.19351222 
0.089778766 0.98615116 0.1394482 
0.11842232 0.98940444 0.08399476 
0.15611765 0.9860429 0.05785041 
0.16271627 0.98486805 0.05965191 
0.12889339 0.97845024 0.16131268 
0.07106861 0.9783301 0.19447301 
0.04981268 0.98539454 0.16283827 
0.05827598 0.98830575 0.14091055 
0.08990292 0.98712075 0.13232617 
0.06233476 0.99535567 0.07335854 
0.0898932 0.9956916 -0.022750536 
0.20617186 0.9783318 -0.018980917 
0.23270753 0.9676922 0.09705254 
0.14929613 0.9814424 0.120339505 
0.0726855 0.99666744 -0.037025016 
0.03941331 0.99440765 -0.09797949 
0.07375628 0.99685824 -0.028873865 
0.1372379 0.98901385 0.054931957 
0.12211635 0.98743844 0.100264035 
0.018346235 0.99563265 0.09153774 
-0.11702286 0.98814017 0.09942222 
-0.24401261 0.96224385 0.120600805 
-0.3010653 0.94158804 0.15090345 
-0.2761492 0.9558933 0.10004895 
-0.1594962 0.98681015 -0.02769118 
-0.042046063 0.9899453 -0.13505782 
-0.042623848 0.96488076 -0.25920737 
-0.11174722 0.96609336 -0.23275821 
-0.15920462 0.9776642 -0.13721037 
-0.12511669 0.9920469 -0.013740958 
-0.031519335 0.9964889 0.07756599 
0.062720485 0.99286646 0.10140213 
0.09765622 0.98624784 0.1333358 
0.105532154 0.9842728 0.14166945 
0.10591922 0.98667854 0.123477474 
0.07787184 0.99368113 0.08083225 
0.024993725 0.99143237 0.12820776 
0.005670529 0.9897913 0.1424119 
0.05204868 0.98829204 0.14342207 
0.087602876 0.9848789 0.14946364 
0.13124338 0.9812635 0.1410571 
0.11168493 0.99195284 0.059632774 
0.16142592 0.9865679 -0.025011167 
0.28221196 0.9586361 0.037058197 
0.28003323 0.9447739 0.17024599 
0.19117215 0.9655365 0.17661448 
0.11842006 0.99281645 -0.017096033 
0.09180358 0.9898507 -0.10847889 
0.13750717 0.98992854 -0.03366603 
0.20534444 0.97808814 0.03431076 
0.16992967 0.9846951 0.038722306 
0.037535463 0.9989936 0.024554607 
-0.075943835 0.9969165 0.019748293 
-0.11466458 0.99332505 0.012549399 
-0.13619263 0.9906571 0.0070890603 
-0.09906849 0.9947774 -0.024567181 
-0.004763957 0.9950929 -0.09883002 
0.095522195 0.9846991 -0.14575075 
0.018848678 0.98538035 -0.1693235 
-0.054305103 0.9853569 -0.16162516 
-0.1212727 0.9893905 -0.07999622 
-0.16247618 0.9866472 0.011352274 
-0.12838274 0.99077624 0.043365203 
-0.018363217 0.99946946 0.026901562 
0.054810606 0.99538636 0.07875214 
0.070924655 0.9886707 0.13228758 
0.048942916 0.9924064 0.11284599 
0.017286807 0.9990306 0.04048436 
-0.036206078 0.9978228 0.055125054 
-0.023787314 0.99772227 0.06312406 
0.040099267 0.9940973 0.10081052 
0.07446349 0.98270476 0.16954829 
0.12604308 0.97216994 0.19748148 
0.15186055 0.9846327 0.08623842 
0.22959836 0.9732795 -0.0034007763 
0.31347045 0.945226 0.09101638 
0.2738693 0.9414294 0.19673958 
0.20650755 0.9666024 0.15177108 
0.17464814 0.98421454 -0.028633514 
0.20775662 0.97323245 -0.098263964 
0.2900993 0.95658374 -0.028108511 
0.37336627 0.92651135 0.046630993 
0.33019903 0.9431545 0.037793644 
0.19141091 0.9807746 0.037988055 
0.09848804 0.9948388 0.024414465 
0.07122964 0.9974216 -0.008745988 
0.02790766 0.9992145 -0.028135901 
0.021919733 0.99827665 -0.054436978 
0.043191567 0.99561876 -0.08293226 
0.09545177 0.99264693 -0.0744381 
0.031602252 0.99035096 -0.13493106 
-0.045971394 0.99277174 -0.1108648 
-0.11985107 0.9926453 -0.01705864 
-0.19459562 0.9786767 0.06576152 
-0.21853675 0.9735476 0.06668443 
-0.12825173 0.9916056 -0.016428566 
-0.026818315 0.9996302 0.0045071077 
0.016920295 0.9977787 0.06443089 
-0.0005815906 0.99886596 0.0476078 
-0.022345658 0.99974924 -0.0014850413 
-0.07498976 0.9971566 0.0074338764 
-0.03923079 0.999202 0.007500608 
0.005131921 0.99611306 0.0879354 
0.018435044 0.98112655 0.19248623 
0.105066895 0.9651271 0.23977196 
0.20479624 0.96957546 0.13409692 
0.30921018 0.94939554 0.055109847 
0.3357787 0.9332965 0.12731968 
0.26361668 0.95195395 0.15585296 
0.23672059 0.97018456 0.052013945 
0.2553352 0.9626189 -0.09038105 
0.36610755 0.9234593 -0.114839785 
0.53130275 0.8441185 -0.07198223 
0.64830524 0.76133907 0.0079432 
0.54648685 0.8358823 0.051506512 
0.37087148 0.9242387 0.09075947 
0.24847327 0.9670905 0.054745667 
0.15251319 0.98827463 -0.0072827013 
0.065772295 0.99746734 -0.027073706 
0.011533335 0.9996613 -0.023327822 
-0.012860499 0.99991214 -0.003235144 
0.024185352 0.9991659 0.032903995 
0.023027303 0.99216235 -0.12281581 
-0.04203071 0.9952533 -0.087773815 
-0.09871166 0.995056 0.0109443925 
-0.16581714 0.982445 0.08547926 
-0.2314818 0.9683527 0.09332371 
-0.18824136 0.98212284 -0.00014565347 
-0.090490416 0.9955197 -0.027424304 
-0.018267011 0.9998311 -0.0020652565 
-0.030460931 0.9993367 -0.019957468 
-0.06479867 0.99786 0.008751841 
-0.13085552 0.9907235 0.036657605 
-0.10433707 0.9932164 0.05133225 
-0.13806157 0.9809681 0.13653025 
-0.11933296 0.9740441 0.19234778 
0.034508668 0.9783566 0.20402858 
0.21765442 0.9691561 0.115598254 
0.350382 0.9328041 0.084314436 
0.31733468 0.9387485 0.13434991 
0.23325247 0.9674787 0.09786912 
0.28224567 0.9592171 -0.015495097 
0.37829295 0.9194877 -0.106943615 
0.5304736 0.83813554 -0.1269913 
0.73638624 0.659004 -0.15313132 
0.8530407 0.51339686 -0.093516305 
0.7119738 0.6997224 0.05900744 
0.5007008 0.85104704 0.15817034 
0.3146141 0.9415247 0.120620266 
0.13614866 0.99007773 0.034779847 
0.013786059 0.9999008 -0.0028903733 
-0.04290153 0.9987142 0.027006881 
-0.050846696 0.9931471 0.10523036 
0.0013274616 0.9877538 0.15601487 
-0.039672706 0.99220127 -0.11816489 
-0.08899395 0.99217886 -0.08752873 
-0.119321145 0.99275607 -0.014066928 
-0.15017793 0.98589176 0.073919944 
-0.18647633 0.9775612 0.09798323 
-0.17485538 0.98317575 0.052831914 
-0.111422226 0.99375266 0.0063903998 
-0.06557918 0.99784744 -0.00014891721 
-0.082633 0.9965784 0.0018769054 
-0.15545632 0.97851205 0.13545321 
-0.22451395 0.9472198 0.22884127 
-0.26658258 0.9185525 0.29188207 
-0.39291325 0.86430305 0.31400543 
-0.33067083 0.90542144 0.2662118 
-0.07599756 0.98030347 0.18228996 
0.17472804 0.9775559 0.11770631 
0.29562882 0.9453709 0.13739574 
0.23061483 0.96713006 0.1071272 
0.18981813 0.9816965 -0.015529384 
0.3025668 0.9489281 -0.089380704 
0.42258808 0.9020492 -0.0879006 
0.5553142 0.82448465 -0.108863726 
0.7371321 0.64455336 -0.20294657 
0.84877205 0.4963314 -0.18232219 
0.73079324 0.68256766 -0.0065302267 
0.55955714 0.81942695 0.124238886 
0.38314313 0.91421676 0.13194372 
0.16527125 0.9838898 0.06816445 
-0.031143483 0.9994693 0.009552435 
-0.08946608 0.9952304 0.03888806 
-0.04197335 0.9890307 0.14162114 
0.046919364 0.9825178 0.18015975 
-0.24656975 0.93401814 -0.2584831 
-0.3181718 0.91878355 -0.23367399 
-0.26349115 0.94598234 -0.18891771 
-0.17272523 0.9848374 -0.016163474 
-0.12211448 0.99039084 0.06491632 
-0.11927682 0.9898673 0.07704393 
-0.09424724 0.9928554 0.07318307 
-0.10881415 0.9920313 0.06350925 
-0.15672909 0.9822936 0.10264231 
-0.2941884 0.90936637 0.294119 
-0.38565892 0.7794642 0.4936626 
-0.47646144 0.6481226 0.59407216 
-0.5878447 0.5259687 0.6146507 
-0.5375771 0.65834725 0.5268679 
-0.24906911 0.9330103 0.2597238 
0.015996695 0.98536026 0.16973291 
0.106330656 0.9826853 0.15173462 
0.09062543 0.9957217 0.018035144 
0.15213335 0.9821855 -0.110305734 
0.29627535 0.95075977 -0.09097669 
0.3984496 0.9168208 -0.026031133 
0.49079758 0.8696724 -0.052798007 
0.6413435 0.7472307 -0.1741404 
0.7455756 0.63575125 -0.19984356 
0.64327264 0.75953907 -0.09644081 
0.52560955 0.8505786 0.015836744 
0.39135668 0.91853017 0.056056894 
0.17377943 0.98337895 0.052598238 
-0.09093939 0.99555165 0.02463608 
-0.21142393 0.97704244 0.026232129 
-0.17208226 0.9801031 0.09892301 
-0.060824778 0.99061626 0.1223922 
-0.7341837 0.10986358 -0.6700033 
-0.76780754 0.083134934 -0.6352639 
-0.61386937 0.4612561 -0.6406304 
-0.2919782 0.93471813 -0.20260993 
-0.11347039 0.9931259 0.0287292 
-0.056748234 0.99505985 0.081459776 
-0.028922025 0.9938038 0.10732018 
-0.08571466 0.9870599 0.13552094 
-0.23224379 0.9476987 0.21892913 
-0.51409096 0.7489507 0.4180711 
-0.7395928 0.118995644 0.662452 
-0.6930307 -0.3553874 0.6272227 
-0.7052938 -0.46310893 0.536741 
-0.8247295 0.07659896 0.5603158 
-0.5612286 0.793798 0.23432273 
-0.25854003 0.9609608 0.09854742 
-0.12166191 0.9924262 0.016992029 
-0.027274331 0.99657285 -0.07809509 
0.12123305 0.98881716 -0.08685275 
0.2622389 0.96494484 -0.010594779 
0.3466998 0.9379714 0.0029887396 
0.39866698 0.91610897 -0.042531792 
0.5069495 0.8503489 -0.14109968 
0.5634947 0.81001306 -0.16233477 
0.47773418 0.8714 -0.111499414 
0.41003817 0.9097192 -0.06541879 
0.28223756 0.9582849 -0.04507785 
0.04037724 0.99917436 0.0045052916 
-0.29093754 0.95334595 0.0805412 
-0.561266 0.82525784 0.06269014 
-0.6406147 0.76778024 0.011242448 
-0.4613429 0.88439614 -0.07075375 
-0.23683308 -0.90381324 -0.35641506 
-0.36183962 -0.8397797 -0.40477413 
-0.5084515 -0.59485275 -0.6225972 
-0.40381664 0.8693435 -0.28491068 
-0.14895304 0.98823446 0.034723688 
-0.043041486 0.9941418 0.099143356 
-0.0042492948 0.9936386 0.112536594 
-0.08170019 0.9859461 0.14572357 
-0.33980003 0.92230934 0.1840695 
-0.7395244 0.594708 0.31531897 
-0.8336555 -0.33428785 0.43962526 
-0.6385065 -0.67079467 0.37728524 
-0.64285463 -0.6555415 0.3962364 
-0.8819313 -0.036161285 0.46998885 
-0.6534144 0.73970544 0.16088963 
-0.3653475 0.93029857 0.03264609 
-0.21894588 0.97408175 -0.056810543 
-0.10568616 0.9911166 -0.08073623 
0.0497203 0.99841523 -0.026362801 
0.18329768 0.9828071 0.022188596 
0.26311553 0.9647089 -0.010337868 
0.27457803 0.96055186 -0.04412508 
0.32440874 0.9414333 -0.091991276 
0.35988742 0.92964447 -0.07900734 
0.33282405 0.9420183 -0.04277542 
0.30251563 0.951506 -0.055863924 
0.13413566 0.98919064 -0.059241425 
-0.20319328 0.97820944 0.042648245 
-0.6250089 0.7254998 0.28812137 
-0.9533896 0.12438038 0.27491453 
-0.8181456 -0.5748855 -0.012025778 
-0.5481783 -0.6662412 -0.50559187 
-0.10307926 -0.9865227 -0.12707344 
-0.22020522 -0.9535006 -0.20578195 
-0.36129138 -0.8263529 -0.43198332 
-0.3904818 0.88744247 -0.24488746 
-0.14598934 0.98859334 0.03701997 
-0.069635086 0.99170214 0.108064316 
-0.04957379 0.9920106 0.116006434 
-0.14006552 0.9836216 0.11344718 
-0.4125872 0.90879273 0.06218953 
-0.80647075 0.58632284 0.076357976 
-0.96068096 -0.2164165 0.1739427 
-0.8056695 -0.53654575 0.25102845 
-0.7408748 -0.50875765 0.43848634 
-0.8138044 0.1431336 0.5632365 
-0.5176267 0.8280247 0.21549413 
-0.2656244 0.96081394 0.07924807 
-0.19190711 0.98139995 -0.0050973943 
-0.1529613 0.98801154 -0.020883398 
-0.046886496 0.99878997 0.0148410965 
0.064782485 0.99738634 0.03199569 
0.11035968 0.9935246 -0.027010947 
0.07860579 0.99569935 -0.049030203 
0.10098186 0.99340343 -0.054334924 
0.17221059 0.9847187 -0.025936056 
0.21076804 0.97752655 -0.004325605 
0.21541624 0.97631514 -0.020115767 
0.054190993 0.99852353 0.0037729663 
-0.30579853 0.93806756 0.16283898 
-0.74836916 0.4565306 0.4811689 
-0.84783113 -0.3893557 0.35997862 
-0.548198 -0.8214963 0.15691665 
-0.36774242 -0.92889905 -0.043729097 
-0.11761211 -0.99242735 -0.03543198 
-0.21485464 -0.97662187 -0.0068735005 
-0.43688035 -0.89755523 -0.059417255 
-0.48159266 0.8432078 -0.23889181 
-0.1570491 0.9875316 -0.010818557 
-0.06919955 0.9936411 0.08882019 
-0.057106413 0.9921291 0.11143931 
-0.14815953 0.9861932 0.073971376 
-0.37528 0.92672515 -0.018584073 
-0.66946447 0.72926164 -0.14140296 
-0.9321029 0.32233158 -0.16518688 
-0.9972799 0.04385903 0.0592402 
-0.87947285 -0.010553561 0.4758322 
-0.70222294 0.46123198 0.5423543 
-0.40826082 0.8763585 0.2555756 
-0.18649751 0.9740714 0.12807693 
-0.12724203 0.9903984 0.054041363 
-0.12220819 0.99139154 0.04699092 
-0.08416478 0.9914167 0.1000464 
-0.02462197 0.9945459 0.10135262 
-0.024637235 0.9996866 0.0044483515 
-0.066596344 0.99648744 -0.050773088 
-0.0248108 0.9985362 -0.048060853 
0.09666261 0.99528736 -0.00771418 
0.18946558 0.98178726 0.014023113 
0.20911005 0.9769101 0.04381289 
0.06104247 0.99427634 0.08768333 
-0.27966127 0.940379 0.19358976 
-0.7750375 0.45599428 0.43747702 
-0.6713897 -0.6203444 0.40547356 
-0.35910448 -0.9082746 0.21466555 
-0.20711821 -0.97222656 0.10898445 
-0.07676425 -0.99701464 -0.008312513 
-0.16521846 -0.98145276 0.09722836 
-0.4152025 -0.88437676 0.21327159 
-0.54035854 0.822679 -0.176669 
-0.12679385 0.991721 -0.02031745 
0.007310775 0.9963465 0.085090384 
0.03243984 0.9921412 0.120845094 
-0.054558706 0.99543124 0.07835835 
-0.24267665 0.9699867 0.0152937295 
-0.45487988 0.8838871 -0.10875668 
-0.6261444 0.76696867 -0.14036545 
-0.7015851 0.71086776 0.049450964 
-0.6651942 0.6667651 0.33606714 
-0.5030453 0.7967598 0.3348422 
-0.2948501 0.9428631 0.15515365 
-0.1277064 0.98721147 0.09541859 
-0.08276102 0.9942312 0.06822817 
-0.13891639 0.98608506 0.09131608 
-0.22345719 0.9530422 0.20439544 
-0.28853357 0.9361627 0.20086782 
-0.3237305 0.94580096 0.025672738 
-0.3127707 0.9438773 -0.106161274 
-0.2074936 0.97548926 -0.073260866 
-0.026273957 0.99950963 0.017038545 
0.113228835 0.9927611 0.040060587 
0.14188553 0.9866864 0.07948816 
0.037193354 0.99659425 0.07359768 
-0.21144931 0.97718155 0.020136477 
-0.7282677 0.6851219 -0.015303955 
-0.525023 -0.74840915 0.40525883 
-0.2068013 -0.95602417 0.2079691 
-0.08383678 -0.9917425 0.09704775 
-0.056421455 -0.99709916 0.05108831 
-0.18776225 -0.96586055 0.17849062 
-0.5068625 -0.76949525 0.38854563 
-0.71015215 0.701664 -0.057893883 
-0.18407252 0.9828568 -0.010477245 
0.053647183 0.99678576 0.059500948 
0.1539075 0.98504746 0.077420965 
0.1196593 0.99179083 0.045085706 
-0.021577151 0.99925506 0.03199548 
-0.21328937 0.97572124 -0.049757235 
-0.33739883 0.9384237 -0.07431732 
-0.34686553 0.936926 0.043059547 
-0.29934376 0.930272 0.21210246 
-0.2415275 0.94865674 0.20424266 
-0.163805 0.9816376 0.09775265 
-0.08675897 0.9937459 0.070299245 
-0.099382654 0.9917739 0.08067066 
-0.24898176 0.95989317 0.12889266 
-0.4664102 0.8344832 0.29342687 
-0.65635407 0.6980305 0.28627425 
-0.6913862 0.72248477 -0.0009876131 
-0.5966676 0.76567584 -0.24026717 
-0.41990238 0.8894378 -0.18050653 
-0.22613113 0.9738964 -0.019764071 
-0.053148936 0.99624425 0.068357125 
0.027229898 0.99186337 0.12436128 
0.006999408 0.99549925 0.09451051 
-0.13371506 0.9909854 -0.008263113 
-0.5445829 0.82089734 -0.17192219 
-0.40532258 -0.88349915 0.23482518 
-0.15701513 -0.9809111 0.11471624 
-0.06791811 -0.99757755 0.015039772 
-0.1516756 -0.9837603 0.095969744 
-0.3243016 -0.91915286 0.22357683 
-0.6440521 -0.61006755 0.461535 
-0.7802194 0.4634648 0.42006922 
-0.2688892 0.9485955 0.16692866 
0.07291086 0.99469525 0.07256354 
0.2202819 0.974469 0.043427568 
0.19997782 0.97955954 0.021726951 
0.10866438 0.99407464 0.0028056744 
-0.017877812 0.9989609 -0.041922368 
-0.081973195 0.9959487 -0.036968168 
-0.034152165 0.9993308 0.013096687 
-0.01297876 0.9952539 0.09644339 
-0.07288621 0.99322313 0.0905292 
-0.114267156 0.99210393 0.05169943 
-0.097317524 0.99400455 0.049843296 
-0.13680886 0.98576075 0.09777076 
-0.36046746 0.91005707 0.20459552 
-0.694428 0.54688513 0.46763924 
-0.91465855 0.0036293156 0.4042112 
-0.99777424 -0.03424451 -0.057217326 
-0.89663815 0.2134287 -0.3879281 
-0.62837654 0.7188943 -0.29721037 
-0.34574622 0.93472683 -0.082129695 
-0.14283648 0.9881674 0.055883944 
-0.064452045 0.9916785 0.11144442 
-0.067430876 0.9935589 0.09107086 
-0.15435876 0.98791736 -0.013885429 
-0.47315678 0.83707845 -0.27463138 
-0.4257988 -0.90244156 -0.065534905 
-0.20927139 -0.97784036 -0.0058183926 
-0.11225936 -0.9931867 -0.031272072 
-0.36108166 -0.93247414 -0.010590481 
-0.5696533 -0.80315053 0.1744834 
-0.85521346 -0.2978155 0.42416507 
-0.7218383 0.4711757 0.5068955 
-0.3095531 0.9356312 0.16962095 
0.04728515 0.9988815 -9.435364e-05 
0.21177824 0.9772668 -0.009982988 
0.2060517 0.97836596 0.018518247 
0.16641156 0.9860135 -0.009211014 
0.09931514 0.9939009 -0.047934372 
0.061073937 0.9976321 -0.031627744 
0.10513339 0.9944338 -0.006966841 
0.08767507 0.9954144 0.03825475 
-0.015610904 0.9995946 0.023808422 
-0.11888402 0.9929038 -0.0029331052 
-0.14340375 0.9896557 -0.004140135 
-0.22054206 0.97415024 0.048913803 
-0.49884787 0.85047626 0.1668565 
-0.8430607 0.21868367 0.4913513 
-0.77778566 -0.50330013 0.3764817 
-0.7852726 -0.59939575 0.15515037 
-0.9334958 -0.3581974 0.016744483 
-0.8328458 0.5488242 -0.07183318 
-0.414521 0.91003865 0.0014753776 
-0.14664695 0.9842306 0.09891845 
-0.060956452 0.9914009 0.11579515 
-0.07254507 0.9914881 0.10811322 
-0.14923973 0.98805827 0.038319178 
-0.3861086 0.88098395 -0.27347314 
-0.35909453 -0.7991206 -0.48213837 
-0.22408801 -0.9479863 -0.22606774 
-0.10369427 -0.9861046 -0.12978962 
-0.6079843 -0.62246716 -0.49283844 
-0.84059995 -0.53421885 -0.0894548 
-0.95172876 0.20089489 0.2320643 
-0.62106216 0.7465267 0.23870417 
-0.21363115 0.9767419 0.01835763 
0.11525355 0.99050033 -0.07500525 
0.2794795 0.95884866 -0.050005943 
0.30633298 0.9517218 -0.019642865 
0.33375046 0.94020766 -0.067972824 
0.31383577 0.94470465 -0.09508041 
0.25818506 0.96533906 -0.03822291 
0.25951752 0.9657269 0.004722946 
0.20081411 0.9789723 0.035873707 
0.074161604 0.99724567 0.0010863615 
-0.07406584 0.9959219 -0.051515996 
-0.1770562 0.9829635 -0.04933572 
-0.33160472 0.9434083 0.004389747 
-0.6537257 0.7511031 0.09212415 
-0.9328003 0.015749963 0.36004955 
-0.697048 -0.63764906 0.32791418 
-0.65331066 -0.6966182 0.29649347 
-0.8271227 -0.45267266 0.33310023 
-0.80117136 0.5533296 0.22792757 
-0.36616507 0.9176185 0.15459472 
-0.09828168 0.9836133 0.1511478 
-0.019587597 0.99187434 0.12570457 
-0.05366138 0.9928679 0.10646067 
-0.16261543 0.9856897 0.04440798 
-0.40372175 0.86574286 -0.29580098 
-0.50511044 -0.5186917 -0.6897988 
-0.35467833 -0.8222273 -0.44513556 
-0.22132276 -0.906555 -0.35940847 
-0.44966787 0.8931774 0.0057582366 
-0.59653246 0.8021875 -0.025381142 
-0.5223989 0.8524027 0.02256293 
-0.2571719 0.965324 0.044859964 
0.05076787 0.9986653 -0.00951157 
0.2776992 0.95898885 -0.056777973 
0.395937 0.9161613 -0.062309477 
0.45485762 0.8857239 -0.092723645 
0.5487856 0.8197074 -0.16405554 
0.5155666 0.8420777 -0.15841803 
0.39855394 0.9158756 -0.048236493 
0.34566778 0.9382414 0.014728797 
0.27236986 0.96215796 0.008168938 
0.13094842 0.9899488 -0.053422783 
-0.015357517 0.998621 -0.050203513 
-0.10243959 0.99454856 0.019477058 
-0.24988313 0.96690124 0.051580165 
-0.59347606 0.79422593 0.13035136 
-0.9050423 0.11257575 0.4101526 
-0.77652323 -0.45972446 0.4308888 
-0.74024993 -0.4240474 0.5217412 
-0.81355107 -0.03890252 0.58019066 
-0.61689264 0.6829452 0.3911896 
-0.27752346 0.93614686 0.21589336 
-0.09432897 0.984997 0.14451015 
-0.03466696 0.9927352 0.11521802 
-0.07016164 0.9941584 0.08201549 
-0.12944281 0.9910741 0.03188443 
-0.2860929 0.9364165 -0.20316227 
-0.56835604 0.5044468 -0.65000373 
-0.72310406 0.058211096 -0.68828195 
-0.7105268 0.008302734 -0.70362115 
-0.03686057 0.9824636 0.18277492 
-0.13551953 0.9854732 0.102357596 
-0.18895529 0.98185813 0.015827728 
-0.08039286 0.9963786 0.02768848 
0.15909821 0.98530895 0.062080767 
0.37857708 0.92347616 0.06221878 
0.518774 0.85452676 0.02564393 
0.62885046 0.7726958 -0.08653487 
0.7504718 0.62836814 -0.20480677 
0.67162466 0.71787935 -0.18322 
0.50741637 0.86040926 -0.047165506 
0.401803 0.9156405 -0.01253126 
0.2924145 0.9533082 -0.07548085 
0.1319459 0.9873612 -0.087795995 
0.07906467 0.99623287 0.035623327 
0.10961786 0.9829551 0.14759159 
0.0152717475 0.9926425 0.120115094 
-0.29760244 0.9377285 0.17915936 
-0.6268411 0.6502529 0.4292336 
-0.700154 0.46479598 0.54198617 
-0.6270212 0.5273585 0.5733564 
-0.54149014 0.6854829 0.4867255 
-0.40236723 0.8710908 0.28160515 
-0.19001693 0.9767327 0.09943337 
-0.10590774 0.99196 0.06927515 
-0.09876087 0.99241334 0.07322672 
-0.13805227 0.9883342 0.06432074 
-0.14064568 0.98894763 0.046918433 
-0.17295673 0.9844 -0.03229257 
-0.24267992 0.9502428 -0.19530816 
-0.31267318 0.918899 -0.24054153 
-0.2747113 0.934423 -0.22668798 
0.05260603 0.9724369 0.22715461 
-0.029899381 0.9867704 0.15934324 
-0.09076914 0.99517524 0.037246853 
-0.057969823 0.9982371 0.012736723 
0.116213396 0.9911451 0.064234406 
0.35028297 0.9265065 0.13743185 
0.5473006 0.824794 0.14204603 
0.7205332 0.6933712 0.008264687 
0.86014485 0.48188242 -0.16715339 
0.77430195 0.6025586 -0.19333829 
0.57874835 0.81013346 -0.09345713 
0.4351871 0.89673054 -0.080539666 
0.29779452 0.94994295 -0.09448184 
0.16032994 0.98683006 -0.021464719 
0.21023889 0.9710997 0.11298324 
0.2900267 0.9467809 0.13960835 
0.1841235 0.977433 0.10355302 
-0.07866583 0.9854889 0.15041098 
-0.35050657 0.91089547 0.21774934 
-0.44845134 0.8533868 0.2657488 
-0.3701553 0.8930468 0.25583723 
-0.33089146 0.92288476 0.19696319 
-0.21713428 0.9693311 0.11510855 
-0.10139119 0.9948411 0.00331953 
-0.07555793 0.9970882 0.010307342 
-0.13333085 0.9910402 0.007888193 
-0.20458156 0.97825205 0.034196246 
-0.21608691 0.97452164 0.060118105 
-0.17033303 0.9843825 0.044471733 
-0.12278411 0.9920596 -0.027236907 
-0.08625729 0.99238074 -0.08797875 
-0.040653545 0.9944971 -0.09655484 
0.0011263399 0.98298293 0.1836938 
-0.052463237 0.99139184 0.119957715 
-0.051869262 0.99849296 0.01793293 
-0.014061971 0.9995547 -0.026319006 
0.09634192 0.99533147 0.005793106 
0.2831002 0.9521333 0.11531038 
0.48268113 0.8585488 0.17295359 
0.69893783 0.71102023 0.07704732 
0.8644554 0.49776295 -0.070349276 
0.78253543 0.6080754 -0.13372606 
0.5698025 0.8134135 -0.11697743 
0.4119441 0.90404564 -0.1140332 
0.28661883 0.9573298 -0.03700535 
0.20539899 0.97579354 0.07508775 
0.29009652 0.9479708 0.13113174 
0.3397717 0.9364089 0.087714285 
0.23332 0.9650801 0.11908953 
0.063069485 0.9802453 0.18746026 
-0.1023363 0.98339885 0.14984678 
-0.16152981 0.9832078 0.0849149 
-0.1603998 0.9870045 0.0096928235 
-0.18551843 0.9825522 0.013201923 
-0.09489601 0.9954632 0.0069173826 
-0.051315583 0.99866736 -0.0055039763 
-0.043104727 0.9989193 0.017386401 
-0.117499724 0.99293447 -0.01658258 
-0.2141794 0.97666055 -0.016169714 
-0.2659446 0.96268374 0.050136115 
-0.20192346 0.97754335 0.060299076 
-0.12308505 0.99239004 0.0034948133 
-0.045715645 0.9957325 -0.08016831 
0.030516947 0.9938225 -0.10670311 
0.035935093 0.998023 0.051565323 
-0.010802967 0.99993026 0.004772169 
0.006508166 0.9993815 -0.03455837 
0.055343352 0.9969601 -0.054842334 
0.13813518 0.98983985 -0.03370107 
0.23148975 0.9717403 0.04618781 
0.35512233 0.92968833 0.09781451 
0.5325874 0.8440248 0.06303165 
0.66375375 0.74719524 0.033619404 
0.5834508 0.81102216 -0.04275882 
0.4124029 0.90576977 -0.09749415 
0.30103832 0.9492399 -0.09121228 
0.2520009 0.96741825 0.024444444 
0.24415989 0.96201396 0.122127235 
0.31421405 0.9420647 0.11740397 
0.30692282 0.9498471 0.0599088 
0.22346704 0.9643883 0.14148444 
0.13338144 0.9644815 0.2280022 
0.03167239 0.9864279 0.16111152 
-0.017585082 0.9981262 0.05860761 
-0.07254642 0.9973576 -0.0038502503 
-0.099441044 0.99497604 0.011587698 
-0.034112085 0.99939924 0.0061289766 
-0.024604697 0.99828154 0.05318478 
-0.015522835 0.99682987 0.07803404 
-0.048351586 0.9986473 0.019124493 
-0.1293051 0.99104995 -0.033170264 
-0.22664648 0.97379625 0.018765563 
-0.21339992 0.9761975 0.03871889 
-0.13977155 0.9900108 -0.01851113 
-0.044326544 0.99438417 -0.096100524 
0.04078142 0.99248976 -0.11533032 
0.09349906 0.9941532 -0.054013066 
0.040547997 0.9961597 -0.07760073 
0.015636984 0.9980527 -0.060384966 
0.023435736 0.9989716 -0.038813785 
0.06515914 0.9977614 -0.015052176 
0.08732853 0.9958838 0.024273396 
0.17558764 0.98345876 0.044473153 
0.31568885 0.94780976 0.044692412 
0.37801224 0.92289895 0.07324181 
0.32205066 0.94672 0.002171173 
0.23327431 0.9693208 -0.077461675 
0.19314007 0.9810208 -0.017179526 
0.21708614 0.9661724 0.1392284 
0.26940235 0.94635534 0.17842126 
0.3035154 0.94871265 0.088446915 
0.22872247 0.9734916 0.00033198233 
0.15869181 0.98303825 0.091939 
0.13365264 0.97134244 0.19654757 
0.07015544 0.9835882 0.16622987 
0.019152692 0.99460864 0.10191665 
-0.042082597 0.9962203 0.07598896 
-0.044910237 0.9964368 0.07139265 
0.012425869 0.9989384 0.04435927 
0.020750893 0.99376434 0.10955379 
0.030551076 0.9897707 0.13935763 
0.033748146 0.9949849 0.09416043 
-0.009006198 0.9999138 0.009558376 
-0.11670327 0.99316514 -0.0018547189 
-0.15536898 0.9876142 -0.0218774 
-0.11129869 0.98978835 -0.08906001 
-0.015502782 0.98738325 -0.15758818 
0.05477383 0.98625916 -0.15586093 
0.08043154 0.98829734 -0.12961186 
-0.012647881 0.9956053 -0.09279127 
-0.1060869 0.99408114 -0.02341664 
-0.14202395 0.98981404 0.009871288 
-0.12306522 0.99230826 0.01338846 
-0.0906055 0.9956811 0.020243548 
0.018836655 0.9994048 0.028900815 
0.1488662 0.9878419 0.044803742 
0.19119817 0.97966963 0.06075202 
0.1459872 0.9892764 -0.0044750897 
0.096219376 0.9912167 -0.0907265 
0.10831816 0.9940938 -0.0067026378 
0.18479456 0.9666034 0.17756344 
0.2777288 0.94537294 0.17069477 
0.2785417 0.95978844 0.034939483 
0.1578361 0.9869438 -0.03209162 
0.10775696 0.99281067 0.05210936 
0.12360686 0.9834193 0.13269517 
0.06617305 0.9862588 0.15137617 