# OOMMF OVF 2.0
# Segment count: 1
# Begin: Segment
# Begin: Header
# Title: m
# meshtype: rectangular
# meshunit: m
# xmin: 0
# ymin: 0
# zmin: 0
# xmax: 1.6e-07
# ymax: 1.6e-07
# zmax: 5e-09
# valuedim: 3
# valuelabels: m_x m_y m_z
# valueunits: 1 1 1
# Desc: Total simulation time:  9.642291860223931e-11  s
# xbase: 2.5e-09
# ybase: 2.5e-09
# zbase: 2.5e-09
# xnodes: 32
# ynodes: 32
# znodes: 1
# xstepsize: 5e-09
# ystepsize: 5e-09
# zstepsize: 5e-09
# End: Header
# Begin: Data Text
-0.18182197 -0.97113246 0.1544103 
0.005125857 -0.99217796 0.12472666 
0.23809542 -0.96283275 0.1275295 
0.38859946 -0.9067583 0.16364554 
0.8611631 -0.50223994 -0.07844382 
0.3489294 0.87255347 0.34190476 
0.044130903 0.9403383 0.33736682 
0.0013679715 0.9397597 0.3418331 
-0.020965738 0.96270794 0.26972932 
-0.13681193 0.9803817 0.14189504 
-0.12413098 0.99222213 0.009319902 
-0.18753657 0.98214245 -0.015043009 
-0.12797233 0.98102653 -0.1456368 
0.099008456 0.9797198 -0.17420223 
0.15140708 0.98646104 -0.06301207 
0.13645463 0.98871744 0.06178881 
0.13403852 0.98739517 0.08416953 
0.16510592 0.9862757 -0.0006626121 
0.15257701 0.9881407 -0.01727248 
0.026031064 0.9984611 -0.04896711 
0.056268837 0.9916447 -0.11608119 
0.26464307 0.96338075 -0.043146573 
0.28574824 0.95714676 0.047097083 
0.16780595 0.9845107 0.050791614 
0.14461218 0.9894392 -0.0098779285 
0.39113238 0.9155764 0.09346302 
0.7675537 0.42879462 0.47644153 
0.6274941 -0.4543542 0.63230807 
0.3035902 -0.593956 0.74501634 
0.124834165 -0.045216683 0.9911468 
0.08479586 0.6671905 0.740045 
0.006795751 0.8536816 0.5207509 
-0.12996352 -0.9907993 -0.03776549 
-0.02993338 -0.9959486 0.08479649 
0.1460049 -0.9594269 0.24121098 
0.38032907 -0.8487956 0.36728162 
0.9922963 -0.12266097 0.017394165 
0.30047208 0.9495435 0.08991012 
0.0226159 0.9951442 0.095794275 
-0.009251001 0.9927746 0.11963759 
-0.029238498 0.994044 0.104983956 
-0.14143687 0.98858166 0.05198038 
-0.14574037 0.9889839 -0.025895063 
-0.19840415 0.9791141 -0.04440127 
-0.15144536 0.9752823 -0.16089985 
0.04565207 0.985134 -0.16561078 
0.10406334 0.99221367 -0.068432406 
0.08223005 0.9963391 0.0233811 
0.06682624 0.9972245 0.03282747 
0.09045779 0.9958673 -0.008115553 
0.08718304 0.9958198 0.027239118 
-0.005548183 0.9994909 0.031418804 
0.022671307 0.99882716 -0.04278475 
0.18071185 0.98340034 -0.016341232 
0.17040493 0.98491335 0.030130204 
0.06482003 0.99764717 0.022328196 
0.0673933 0.99734473 0.027601164 
0.26985556 0.95505404 0.12267779 
0.5807367 0.74203 0.33486766 
0.7332065 0.3044676 0.60803604 
0.6592073 0.2010346 0.7245902 
0.4698671 0.5731769 0.67133695 
0.25385264 0.8549872 0.4522785 
0.11367583 0.9311187 0.34654826 
-0.1352316 -0.97860265 -0.15507896 
-0.29281703 -0.95559824 0.033018216 
-0.3371649 -0.8236595 0.455966 
-0.25117788 -0.5521131 0.79503506 
0.24571545 0.96452385 0.09652833 
0.037894532 0.9960101 -0.08079494 
-0.02831583 0.9938607 -0.106953934 
0.011173516 0.9971276 -0.07491173 
0.028089605 0.99869823 -0.042577047 
-0.055717282 0.99822766 -0.020910298 
-0.08083218 0.9951051 -0.056850784 
-0.14865258 0.9837553 -0.10063772 
-0.1289191 0.96617657 -0.22334442 
0.018417869 0.97821414 -0.20678027 
0.07074138 0.9918347 -0.106111325 
0.050827917 0.99835235 -0.026630232 
0.0284103 0.9990358 -0.033470992 
0.031652737 0.9975627 -0.06218434 
0.0037175526 0.9998577 0.016458943 
-0.06604292 0.99638397 0.053453982 
-0.01821858 0.99959344 -0.021935793 
0.11689879 0.99276495 -0.027433228 
0.09201879 0.9956893 0.011639287 
-0.012285254 0.9998264 0.014010546 
-0.0024746305 0.99987054 0.015900908 
0.16094936 0.9855633 0.052538272 
0.40963587 0.9048219 0.116171405 
0.58379084 0.77692395 0.23574895 
0.6043238 0.75315857 0.2598945 
0.48751867 0.8356904 0.25287753 
0.31656894 0.91671854 0.24374446 
0.20058534 0.94961774 0.24081483 
-0.6841724 -0.6457647 -0.33896333 
-0.93806165 -0.04960837 -0.34289867 
-0.73842525 0.6721842 0.053820197 
-0.42305005 0.89751834 0.12445729 
-0.11012656 0.9916781 -0.06668338 
-0.079835236 0.9853788 -0.15051575 
-0.061494082 0.982324 -0.17679994 
0.013124533 0.98895526 -0.14763248 
0.077470094 0.9912539 -0.10683677 
0.020194234 0.99803305 -0.059349474 
-0.038268805 0.99687403 -0.06912158 
-0.11658722 0.98222136 -0.14713506 
-0.078159265 0.9550501 -0.28595555 
0.041421603 0.9681487 -0.24692574 
0.06913922 0.9879689 -0.13833788 
0.05449078 0.9961303 -0.0689584 
0.036335863 0.9952514 -0.09030222 
0.007911807 0.993328 -0.1150524 
-0.0705054 0.99727756 -0.021600345 
-0.12761045 0.9918141 -0.0045187944 
-0.044282198 0.9953681 -0.08533074 
0.1020306 0.99179316 -0.07704676 
0.08402106 0.9964589 -0.0031876974 
-0.0043618325 0.99948996 0.03163708 
0.016634746 0.99976915 0.013601799 
0.15548648 0.98781824 0.0062535093 
0.33023727 0.9438964 -0.0017440491 
0.42089412 0.90683854 0.022183634 
0.41933873 0.9064988 0.04914255 
0.35206023 0.9284477 0.11848438 
0.22301027 0.95215535 0.20896594 
0.14368644 0.95629644 0.25465938 
-0.7684306 0.6011466 -0.2194021 
-0.48487312 0.8639189 -0.13616943 
-0.2671503 0.9636195 -0.0082688555 
-0.1494735 0.9884869 -0.023483055 
-0.06484783 0.99350846 -0.09346493 
-0.051791023 0.98834914 -0.14312108 
-0.06408143 0.9866578 -0.14966619 
-0.039055843 0.9925695 -0.115241304 
0.025246492 0.99448717 -0.101773776 
-0.0013832779 0.99581796 -0.09135024 
-0.045642823 0.99350697 -0.10421433 
-0.06835328 0.9803751 -0.18491256 
0.008747094 0.9577097 -0.2876031 
0.092530794 0.9668774 -0.2378785 
0.089923754 0.98311275 -0.15938337 
0.07688879 0.9899706 -0.11851695 
0.06897057 0.9878353 -0.1393718 
0.0058097634 0.9903478 -0.13848287 
-0.11722228 0.9921778 -0.04292189 
-0.1517224 0.98606986 -0.06816601 
-0.03229035 0.985662 -0.16561401 
0.09454453 0.98456734 -0.14726987 
0.059062093 0.99731773 -0.04323224 
-0.009348518 0.99989504 -0.0110732345 
0.010965808 0.99834126 -0.056520484 
0.13547842 0.9891981 -0.05597077 
0.2553705 0.9648578 -0.061929986 
0.2785062 0.9588522 -0.055109035 
0.25812864 0.96608365 0.007215619 
0.19615623 0.9741651 0.11191588 
0.100342095 0.9752826 0.19686402 
0.064469375 0.96608984 0.25002825 
-0.3521258 0.9342168 0.056977544 
-0.16730842 0.9842783 0.056605514 
-0.05754517 0.998034 0.024834694 
0.0077171703 0.9997237 -0.022205116 
0.055234533 0.99619544 -0.06740726 
0.037945464 0.99383163 -0.104206026 
-0.023426777 0.99640757 -0.08138228 
-0.08198333 0.99621475 -0.028894482 
-0.07261586 0.9951143 -0.06689117 
-0.052799743 0.9898437 -0.13199082 
-0.0062390687 0.98795825 -0.15459514 
0.04152556 0.9803361 -0.1929166 
0.09470915 0.9690849 -0.22782567 
0.09794941 0.9788232 -0.17975296 
0.057673477 0.9857214 -0.15819958 
0.038212504 0.98573303 -0.16392174 
0.029849347 0.9825209 -0.18374376 
-0.04497645 0.98546606 -0.16381037 
-0.15447128 0.984166 -0.08692487 
-0.13092792 0.9792975 -0.15438324 
0.009147569 0.968081 -0.2504709 
0.065112025 0.9721212 -0.22525735 
-0.019336706 0.99219376 -0.12319834 
-0.09009012 0.98810315 -0.124643646 
-0.07315685 0.98066545 -0.18150304 
0.062086422 0.9881829 -0.14014196 
0.19288573 0.9791707 -0.063403375 
0.22176938 0.9750659 0.008054673 
0.19089967 0.97743887 0.09039158 
0.09371569 0.9803201 0.17375268 
0.034171794 0.97384834 0.2246146 
0.057034947 0.9646652 0.25723162 
-0.17390393 0.97485954 0.13930717 
-0.08068897 0.989381 0.12089018 
0.011241226 0.99930185 0.035630364 
0.08795527 0.99606556 -0.010831724 
0.141231 0.9887319 -0.0496285 
0.10858989 0.99124724 -0.07508227 
0.022402825 0.99943686 -0.024983542 
-0.06422758 0.9969962 0.043283597 
-0.081638165 0.99644953 -0.020582756 
-0.022418803 0.9936838 -0.10995454 
0.09706313 0.9897054 -0.105177104 
0.17716442 0.9799538 -0.09112209 
0.16732098 0.9811849 -0.09633225 
0.07666666 0.9943248 -0.07376033 
-0.010353451 0.9946433 -0.10284786 
-0.0523165 0.985005 -0.1644024 
-0.06394802 0.9718636 -0.22669782 
-0.12567742 0.96689457 -0.2220816 
-0.19625758 0.96640956 -0.16593839 
-0.1337258 0.9634798 -0.23200008 
-0.025590714 0.9558054 -0.29288417 
-0.047870316 0.9658604 -0.2546019 
-0.15448219 0.9722595 -0.17563231 
-0.21757089 0.94900566 -0.22814748 
-0.18688178 0.93088967 -0.3138786 
-0.043413326 0.9588454 -0.2805902 
0.10901072 0.9867259 -0.12036891 
0.17811574 0.9834938 0.031856738 
0.16761896 0.97984636 0.10865147 
0.04581209 0.989501 0.13707294 
-0.04344503 0.9869534 0.1550344 
-0.04914669 0.9869666 0.1532371 
-0.09349811 0.9912665 0.09299946 
-0.039476477 0.9966022 0.0722897 
0.04489199 0.9989854 0.0035881046 
0.11537332 0.99318635 -0.01642712 
0.15855993 0.98599935 -0.05161508 
0.1456617 0.9875805 -0.058885384 
0.10533483 0.9943747 0.011119973 
0.053384013 0.9950097 0.08429561 
0.03148362 0.9987247 0.03947119 
0.06358249 0.99790204 -0.012204745 
0.17107558 0.98525745 0.0010388464 
0.24194086 0.9702909 -0.00039670567 
0.20922323 0.9763735 -0.054041322 
0.09015425 0.9943275 -0.05643752 
-0.0056342436 0.99357444 -0.11304032 
-0.07467341 0.9842295 -0.16036305 
-0.1287013 0.965936 -0.2245078 
-0.17350334 0.95320266 -0.2475912 
-0.21401769 0.95034546 -0.2259206 
-0.15969194 0.9467355 -0.2796257 
-0.09446458 0.94798636 -0.30397108 
-0.18854296 0.9468365 -0.2606769 
-0.32867375 0.92183065 -0.20543079 
-0.38913813 0.87329835 -0.2931241 
-0.35748044 0.8396945 -0.4088043 
-0.21474531 0.883015 -0.41733572 
-0.04717256 0.969275 -0.24141413 
0.06959849 0.9948674 -0.07345087 
0.10614252 0.9942084 -0.016834294 
0.030761179 0.9991793 -0.026356028 
-0.07056955 0.9971012 -0.028447505 
-0.1486739 0.98747796 -0.052759066 
-0.1006877 0.99491805 0.00021431778 
-0.06325157 0.9979543 -0.009303669 
0.014014239 0.99929714 -0.034767818 
0.08615414 0.99553 -0.03869976 
0.13556355 0.98845357 -0.067690745 
0.16489372 0.98443735 -0.060771864 
0.18145704 0.98334616 0.010182083 
0.13940893 0.9880568 0.065642364 
0.08567326 0.99447024 0.060738217 
0.08061068 0.9939101 0.07513212 
0.15090293 0.9803108 0.12735389 
0.22057298 0.97044045 0.09794464 
0.20383658 0.9785597 -0.029525572 
0.098382235 0.9917022 -0.08275113 
-0.0050888727 0.9890826 -0.14727515 
-0.064719945 0.98922414 -0.13132821 
-0.13133624 0.9831178 -0.12739766 
-0.17135076 0.9703817 -0.1702891 
-0.18271723 0.95267814 -0.24293819 
-0.1257579 0.9409067 -0.31445128 
-0.12290469 0.94379497 -0.30683172 
-0.3063657 0.9125109 -0.27104244 
-0.47132948 0.8401691 -0.2682621 
-0.51043326 0.76311284 -0.39637953 
-0.49764243 0.7083564 -0.500583 
-0.38106087 0.76984566 -0.51198655 
-0.20531654 0.9147575 -0.34794244 
-0.056935653 0.97957635 -0.19284374 
0.021008737 0.990908 -0.13289107 
0.023368057 0.98900366 -0.1460333 
-0.034105692 0.98802793 -0.15045834 
-0.1338237 0.979511 -0.1504972 
-0.26685023 0.955181 -0.12814122 
-0.20291896 0.9759206 -0.0800183 
-0.07627307 0.9963986 -0.03704187 
0.022215478 0.9989771 -0.03938677 
0.087913744 0.99430555 -0.06023031 
0.133054 0.98974055 -0.05206083 
0.15262438 0.9882837 -0.0010547657 
0.10665476 0.9932993 0.04451184 
0.05481604 0.9958856 0.07216003 
0.069202185 0.9889742 0.13092409 
0.13467723 0.95158124 0.2763244 
0.24717972 0.9169956 0.31308368 
0.27749377 0.9404996 0.19610645 
0.2019238 0.97749275 0.061113153 
0.062473327 0.9978155 -0.021479595 
-0.020614674 0.99969226 -0.013803233 
-0.090029724 0.995648 -0.024078567 
-0.15383041 0.98394984 -0.09043793 
-0.16724202 0.96235526 -0.21424896 
-0.13347444 0.9446504 -0.29970047 
-0.22374566 0.93505675 -0.27496678 
-0.43477982 0.866997 -0.24348056 
-0.53845227 0.7850724 -0.30615437 
-0.52697515 0.7137681 -0.46133757 
-0.5485443 0.6547506 -0.5200009 
-0.47339964 0.7302169 -0.49262157 
-0.26898345 0.90760344 -0.3223415 
-0.095186055 0.979324 -0.1785059 
0.0022024673 0.99210453 -0.12539513 
0.023389034 0.99016297 -0.13795057 
-0.03646946 0.9905237 -0.13241147 
-0.129959 0.98666596 -0.09798545 
-0.64017904 0.67313844 -0.3702101 
-0.553485 0.80401415 -0.21729183 
-0.29373172 0.95481277 -0.0453259 
-0.09196028 0.99504167 -0.0378861 
0.009803117 0.9984942 -0.053974617 
0.042579956 0.99781317 -0.050556023 
0.06206014 0.9979894 0.012870928 
0.05700913 0.99596995 0.06923796 
0.036100116 0.9943877 0.09944867 
0.0736745 0.9812719 0.17798194 
0.15707761 0.88669944 0.4348457 
0.35078245 0.6822562 0.64146566 
0.45800024 0.6386606 0.6183433 
0.4323351 0.82991993 0.35258952 
0.26184756 0.9481498 0.18013303 
0.109757476 0.9833089 0.14510976 
-0.006687333 0.998101 0.06123467 
-0.086737536 0.99455225 -0.057813898 
-0.12326933 0.9784758 -0.16549893 
-0.14296313 0.9673182 -0.20942119 
-0.2968687 0.93457466 -0.19605929 
-0.46823403 0.8542605 -0.22582296 
-0.48644885 0.8038483 -0.3423384 
-0.44663778 0.77112633 -0.453739 
-0.50074863 0.75276273 -0.4273162 
-0.42622668 0.8338958 -0.3506404 
-0.18443371 0.96258324 -0.19853933 
-0.025149245 0.99650526 -0.07965462 
0.045126222 0.99812156 -0.04143723 
0.0041866037 0.99933285 -0.03628118 
-0.14408255 0.98929065 -0.023329195 
-0.26430798 0.96438277 0.010359274 
-0.7831222 -0.4050748 -0.47184116 
-0.9529787 -0.07711606 -0.29306096 
-0.7856191 0.6170541 0.045242157 
-0.33130407 0.9420594 -0.052551903 
-0.09912975 0.99133575 -0.08617853 
-0.032589383 0.99714965 -0.068047434 
0.008714295 0.99993944 0.0067313095 
0.056887403 0.9956806 0.0733768 
0.052493226 0.99001074 0.13085628 
0.07503482 0.96064293 0.26746047 
0.09057116 0.6970471 0.71128213 
0.25616005 -0.08853503 0.9625714 
0.3396848 -0.22761276 0.91258246 
0.5114639 0.3653947 0.77774775 
0.33558303 0.82185686 0.46036446 
0.14405274 0.95315737 0.26596972 
0.03525273 0.9954306 0.08874268 
-0.013752581 0.9973514 -0.07142157 
-0.03263616 0.99171704 -0.12422608 
-0.07644399 0.99281776 -0.09202938 
-0.2577975 0.9616961 -0.09317302 
-0.3852278 0.9000372 -0.20379521 
-0.35539976 0.87992865 -0.3153042 
-0.32556003 0.8820494 -0.34058708 
-0.37393507 0.8901781 -0.26029897 
-0.29519826 0.9350351 -0.19638613 
-0.09867656 0.98884726 -0.11155321 
-0.0043858243 0.9995049 -0.031155134 
-0.0075304466 0.9994045 0.033677537 
-0.17420591 0.97082555 0.16477294 
-0.51155806 0.82946545 0.2242667 
-0.69620574 0.68241227 0.22273561 
-0.3802934 -0.91466165 -0.13700746 
-0.5656069 -0.82434076 0.02347821 
-0.81218123 -0.38941762 0.43441433 
-0.6188621 0.78549224 0.0034084837 
-0.23655312 0.96432817 -0.11880199 
-0.10467134 0.98901576 -0.10436397 
-0.028747557 0.99881035 -0.039388806 
0.06089631 0.99582773 0.067961834 
0.07041736 0.9755315 0.2082778 
0.027277675 0.85162085 0.5234483 
-0.10243643 -0.013544756 0.9946473 
-0.03591358 -0.684278 0.72833645 
0.04233029 -0.64086473 0.7664859 
0.33278024 0.08853283 0.9388393 
0.32866898 0.75639576 0.56554604 
0.19593516 0.93669045 0.29020765 
0.07882427 0.9925232 0.09319138 
0.02166298 0.9978215 -0.062313974 
0.015346484 0.9983314 -0.05566814 
-0.0536725 0.99855816 -0.00090970204 
-0.20355572 0.97780627 -0.049597796 
-0.25286925 0.9457718 -0.20389444 
-0.22686587 0.93915486 -0.25791484 
-0.24077371 0.9453567 -0.21983805 
-0.2807344 0.94820344 -0.14865579 
-0.21516797 0.9670825 -0.13584642 
-0.10112636 0.9885704 -0.11181256 
-0.07391194 0.99664235 -0.035228577 
-0.15468474 0.97526944 0.15786801 
-0.4136782 0.5522376 0.7238122 
-0.4479605 -0.6466439 0.6174004 
-0.47270235 -0.75580543 0.45311242 
-0.23655711 -0.9667335 0.09729842 
-0.361752 -0.9212523 0.1429326 
-0.60902774 -0.7322933 0.30468318 
-0.7233468 0.68236697 -0.105569 
-0.31597567 0.9331058 -0.17167667 
-0.17222707 0.9725289 -0.15660661 
-0.07402424 0.9889132 -0.12872936 
0.0111552905 0.9997701 0.018314768 
0.059778463 0.96323484 0.26192608 
0.009503692 0.7354024 0.6775641 
-0.17082538 -0.45091918 0.87606543 
-0.17471837 -0.7316011 0.65896386 
-0.21743028 -0.42878753 0.8768497 
0.047989693 0.4422019 0.89563084 
0.1679137 0.84584117 0.50631773 
0.15396369 0.94488835 0.28893116 
0.069591194 0.9893331 0.12797329 
0.015791109 0.99987537 -0.00029344115 
0.00012056112 0.9998007 0.019963248 
-0.06526335 0.9971704 0.03731074 
-0.12747602 0.9900992 -0.05876669 
-0.106969625 0.9800545 -0.16748336 
-0.12454669 0.9794805 -0.15844914 
-0.19260821 0.9746616 -0.113740474 
-0.23349042 0.9696861 -0.072050475 
-0.18239197 0.9800805 -0.078585 
-0.12708834 0.98899454 -0.075751856 
-0.13912663 0.98978215 -0.031227289 
-0.29965255 0.9403668 0.16099264 
-0.6008906 -0.15026781 0.78507966 
-0.23417178 -0.89539546 0.37872213 
-0.16757225 -0.95182616 0.25680074 
-0.25228405 -0.95385534 0.16282758 
-0.3353759 -0.9332169 0.12895463 
-0.55144936 -0.810413 0.1978241 
-0.74799347 0.65192777 0.124482565 
-0.4122651 0.909617 -0.05132706 
-0.28574532 0.948788 -0.13472556 
-0.17460603 0.97102916 -0.16314149 
-0.07967836 0.99583864 -0.044236276 
-0.0033900465 0.9778089 0.20947137 
-0.005703246 0.79739803 0.60342675 
-0.13967642 -0.0473219 0.9890659 
-0.18668064 -0.12552875 0.974368 
-0.20517664 0.5794475 0.78876054 
-0.060183108 0.9039456 0.4233915 
0.043336462 0.9684521 0.24540313 
0.102878116 0.97304124 0.20641409 
0.065711536 0.988175 0.13853629 
0.014311711 0.9996979 0.01998389 
-0.011321291 0.99982136 -0.0151376715 
-0.047248747 0.99887216 -0.0046900795 
-0.06943469 0.997139 -0.029879168 
-0.06411713 0.99594754 -0.06306706 
-0.08693805 0.9915034 -0.09676125 
-0.14234819 0.982974 -0.11618632 
-0.19185801 0.9785577 -0.07493613 
-0.17159364 0.9847273 -0.029459527 
-0.12070108 0.9926852 0.0027381836 
-0.11562232 0.99298227 0.024855789 
-0.2781166 0.9509358 0.13554509 
-0.7257558 -0.5444294 0.42056522 
-0.2283012 -0.96235394 0.1474903 
-0.09415926 -0.9933089 0.066868916 
-0.2145423 -0.9767147 -0.0001746888 
-0.29552558 -0.9552016 0.015951505 
-0.510407 -0.83807707 0.19264366 
-0.4653112 0.8159608 0.34306505 
-0.27392063 0.954108 0.12101806 
-0.2603811 0.96549964 0.0034944857 
-0.23442951 0.9697049 -0.068666995 
-0.13561366 0.9902536 -0.031728864 
-0.031216143 0.99322706 0.11191772 
0.015771102 0.930803 0.36518094 
-0.042678125 0.7502715 0.65975094 
-0.043438468 0.7738974 0.63181967 
-0.056442548 0.94054365 0.3349507 
-0.056010164 0.99430865 0.09062698 
-0.016190916 0.9993986 0.030665599 
0.052369863 0.99351156 0.10095639 
0.045525473 0.99474436 0.091713145 
-0.0046973955 0.9998114 -0.01884345 
-0.038476612 0.9983816 -0.041877028 
-0.054767504 0.9958095 0.07323908 
-0.075680785 0.9733777 0.21635213 
-0.11683099 0.96543163 0.23300755 
-0.12026575 0.9873545 0.103282936 
-0.13757579 0.98968863 -0.03986619 
-0.1775745 0.98180085 -0.06733759 
-0.20491834 0.97838813 -0.027660718 
-0.17491792 0.9832114 0.05195328 
-0.15823938 0.98075336 0.1143818 
-0.32558376 0.9208693 0.21446474 
-0.72845954 -0.67202896 0.13313074 
-0.30636367 -0.9508604 -0.044786423 
-0.14683697 -0.98485696 -0.092172466 
-0.17392468 -0.98102945 -0.085624345 
-0.33660737 -0.94139534 -0.021690452 
-0.7275657 -0.65259886 0.21157284 
-0.32757097 0.9217569 0.20751259 
-0.14447622 0.9843555 0.10085099 
-0.16179669 0.9847214 0.064387396 
-0.21034566 0.9776177 0.004292678 
-0.16965564 0.9851304 -0.027111642 
-0.08416892 0.99637777 -0.012126812 
-0.030974092 0.9928701 0.11510733 
-0.01897653 0.9636774 0.2663938 
0.018797832 0.96417123 0.26461393 
0.02438953 0.99350935 0.111105576 
-0.003019165 0.99954665 -0.029956559 
0.0055243433 0.99958366 -0.028320214 
0.0460204 0.9952142 0.08620289 
0.039405376 0.99334013 0.10827109 
-0.040691264 0.9984066 0.039096452 
-0.11441137 0.9911126 0.0678682 
-0.17429978 0.9437238 0.28107816 
-0.20085247 0.77657264 0.5971544 
-0.21332474 0.7205856 0.659734 
-0.12167292 0.90550816 0.40651038 
-0.12337581 0.98533374 0.117880724 
-0.16672197 0.98472506 -0.05020287 
-0.22633855 0.9697415 -0.091499336 
-0.2506872 0.96789724 -0.018193241 
-0.26506615 0.9578931 0.11036763 
-0.45500326 0.83330894 0.313956 
-0.5511824 -0.8226843 0.13924353 
-0.29183707 -0.9560003 -0.029907143 
-0.1953185 -0.9796219 -0.046815045 
-0.11507376 -0.9912253 0.06504302 
-0.2720642 -0.9510842 0.14635573 
-0.7710558 -0.4309874 0.46874616 
-0.3334763 0.9324559 0.1389948 
-0.13484119 0.9906864 0.018931625 
-0.12844008 0.99171454 0.0023497501 
-0.18600164 0.98227334 -0.023294171 
-0.20110674 0.9782059 -0.051663965 
-0.12801936 0.9875232 -0.09170094 
-0.058907703 0.9953793 -0.0758276 
-0.0357667 0.9989981 -0.026901077 
-0.04180621 0.9990824 0.009309731 
-0.021262914 0.999628 0.017080769 
-0.0030533157 0.99991256 -0.012873215 
0.0072463853 0.9999119 0.011123021 
0.040166292 0.9904955 0.13154988 
0.0576213 0.97816044 0.19970511 
-0.012926439 0.97331345 0.2291155 
-0.13149844 0.9241149 0.35877562 
-0.31440666 0.6557666 0.68638086 
-0.30753857 -0.115924604 0.94444776 
-0.29284254 -0.14096549 0.9457125 
-0.16156483 0.7251356 0.6693842 
-0.118128926 0.9646447 0.23559755 
-0.14086498 0.98861754 -0.052844133 
-0.18818629 0.9658846 -0.17791243 
-0.2776899 0.95061344 -0.13864556 
-0.38943222 0.9206903 -0.025923511 
-0.7165369 0.67678094 0.16894504 
-0.58808637 -0.78651613 0.18853892 
-0.36255047 -0.9272533 0.093587495 
-0.2731966 -0.9534889 0.12736832 
-0.1743942 -0.9533743 0.24630083 
-0.27627337 -0.88353574 0.37820318 
-0.61391026 0.0018275921 0.7893738 
-0.33369502 0.92969996 0.15590322 
-0.1485266 0.9877811 -0.047205377 
-0.12024201 0.98885614 -0.08778162 
-0.18535836 0.9787088 -0.08815578 
-0.24652345 0.96652085 -0.071159 
-0.19192198 0.97531784 -0.109184265 
-0.11620213 0.9807165 -0.15713756 
-0.10351139 0.9822681 -0.156317 
-0.12796584 0.9906198 -0.047929574 
-0.06450166 0.99733055 0.03422659 
-0.015267515 0.9998388 0.009457053 
-0.022189202 0.9997378 -0.0056682643 
0.014833106 0.99293363 0.11774085 
0.0842186 0.96026975 0.2660624 
0.07791078 0.87822455 0.4718599 
-0.05271644 0.5524378 0.8318856 
-0.32163337 -0.30714944 0.8956624 
-0.25153854 -0.7264989 0.6394745 
-0.28138912 -0.54231614 0.79165244 
-0.16604763 0.64394563 0.7468348 
-0.07219712 0.9534408 0.29281086 
-0.070271626 0.9975169 0.0046880664 
-0.106937245 0.98208624 -0.15514839 
-0.17742774 0.96894574 -0.17223105 
-0.30288982 0.93743306 -0.17168911 
-0.71406883 0.6907858 -0.11366965 
-0.6199759 -0.7361423 0.27152243 
-0.3735881 -0.9192538 0.12411494 
-0.24801151 -0.9635348 0.100453965 
-0.4438238 -0.78174925 0.4380508 
-0.49514395 -0.6320112 0.5961496 
-0.40683717 0.6115773 0.6785697 
-0.17577209 0.9717567 0.15745826 
-0.08052085 0.9957259 -0.045237884 
-0.095433176 0.9879224 -0.12207417 
-0.21036707 0.96619105 -0.14906594 
-0.28084227 0.9473614 -0.15373372 
-0.2296137 0.9478217 -0.22115959 
-0.21152304 0.93943673 -0.26966032 
-0.24590406 0.94589883 -0.21167561 
-0.20397201 0.9771065 -0.06048516 
-0.06006724 0.9978915 -0.024588589 
-0.015073936 0.9969191 -0.07697566 
-0.029836155 0.99727255 -0.06750771 
0.026428053 0.99624187 0.08248509 
0.13466986 0.9538134 0.26852226 
0.23594613 0.80311847 0.5471109 
0.23395191 0.2187636 0.94731677 
-0.07364093 -0.59547234 0.7999937 
-0.16106236 -0.7127435 0.68268263 
-0.28154817 -0.1845151 0.9416394 
-0.14248998 0.80766875 0.5721607 
-0.03427208 0.9736328 0.22553194 
0.002994153 0.9983982 0.056499977 
-0.05179133 0.9965827 -0.064348795 
-0.10327662 0.98667324 -0.12573719 
-0.2193403 0.9639331 -0.15074056 
-0.62399274 0.77661955 -0.086574286 
-0.8180261 -0.47464204 0.3248819 
-0.54238546 -0.84011126 -0.005595219 
-0.36726993 -0.9225067 -0.11871992 
-0.663382 0.7375023 0.12654914 
-0.4566668 0.8690582 0.1902455 
-0.12662186 0.97682214 0.17258494 
-0.0009960551 0.99865484 0.05184282 
0.00696948 0.9994111 -0.033598967 
-0.07263717 0.9906945 -0.1151008 
-0.26731348 0.943463 -0.19601306 
-0.35913944 0.8975464 -0.25579187 
-0.30041793 0.8910307 -0.34031385 
-0.32019362 0.88666946 -0.33360678 
-0.36430523 0.9055573 -0.21736546 
-0.24938767 0.96144 -0.11592665 
-0.07771451 0.98876977 -0.12765159 
-0.05403375 0.9867245 -0.1531509 
-0.0481084 0.99543446 -0.08243628 
0.010792701 0.9972876 0.07280961 
0.11175135 0.96342707 0.2435568 
0.2670344 0.8495434 0.45493814 
0.41530094 0.4212062 0.8062943 
0.20108749 -0.2425652 0.94906586 
0.07811804 -0.17337318 0.98175323 
-0.029885992 0.6406058 0.7672881 
0.0023201786 0.9521714 0.30555594 
0.0065584457 0.9881025 0.15365745 
0.030812763 0.9961071 0.08259171 
-0.000971147 0.9999782 0.0065371855 
-0.02308004 0.9972818 -0.06997526 
-0.07566604 0.9923715 -0.09733243 
-0.3169121 0.94341457 -0.097651295 
-0.8036075 0.59307325 -0.0497901 
-0.93707716 -0.07025458 -0.34198073 
-0.779115 -0.3996678 -0.48295492 
-0.24530813 0.96857387 -0.041092753 
-0.12512219 0.9916872 -0.030017754 
0.024251373 0.999705 -0.0013920512 
0.045771673 0.99891055 -0.009096742 
-0.014949476 0.9983003 -0.05633024 
-0.16693716 0.97059035 -0.17345494 
-0.40413502 0.8510069 -0.3353539 
-0.4864519 0.7645758 -0.42283407 
-0.42565084 0.78041804 -0.45800546 
-0.46383712 0.8090786 -0.36089766 
-0.46457756 0.8549775 -0.23061103 
-0.2919004 0.9323918 -0.21316618 
-0.1297189 0.9626759 -0.23754616 
-0.11737237 0.9736452 -0.19554734 
-0.09596924 0.99185395 -0.08375948 
-0.02100813 0.99892634 0.041291688 
0.072895326 0.98782814 0.13741133 
0.1892037 0.9609493 0.20193663 
0.32871786 0.8488526 0.41399774 
0.33650938 0.6224186 0.7066517 
0.2562492 0.646455 0.7186323 
0.108205386 0.8722686 0.47690585 
0.05785117 0.9778987 0.20091683 
0.029078806 0.9921186 0.121881604 
0.04861385 0.99511504 0.08592334 
0.062386308 0.99775755 0.024245434 
0.062037107 0.9971941 -0.04189633 
0.046394475 0.99798584 -0.043266356 
-0.05066459 0.99783015 -0.042049408 
-0.2710505 0.95997417 -0.07057887 
-0.5414184 0.8047883 -0.24327393 
-0.648762 0.6475526 -0.39972943 
-0.13819386 0.9821555 -0.12756626 
-0.044190213 0.98827785 -0.14613076 
0.019783698 0.9916957 -0.12707587 
-0.006865295 0.9928557 -0.11912405 
-0.09749806 0.9821867 -0.16063468 
-0.26247236 0.9158117 -0.30396917 
-0.4503461 0.74626476 -0.4901809 
-0.5376673 0.6542617 -0.53184164 
-0.52627677 0.69916993 -0.48393613 
-0.5520331 0.7643952 -0.33310583 
-0.46619985 0.84942704 -0.24724747 
-0.23391962 0.9287317 -0.28764433 
-0.112186104 0.9414496 -0.317942 
-0.14328477 0.9613801 -0.23498473 
-0.14803712 0.982173 -0.11584955 
-0.10122376 0.9941506 -0.037663795 
-0.05836082 0.9982945 0.0014593429 
0.013002103 0.99959034 0.025499947 
0.15517733 0.9801347 0.12351487 
0.23937908 0.9367412 0.25536957 
0.23045471 0.90631974 0.35422504 
0.1350763 0.94500095 0.297872 
0.088325635 0.9842748 0.15297626 
0.07026655 0.99281335 0.096872196 
0.10446953 0.9924935 0.06358324 
0.14792486 0.9888024 0.019700142 
0.14273648 0.98920196 -0.033253673 
0.12147581 0.9919728 -0.035124958 
0.068834744 0.9973573 -0.02324325 
-0.036552295 0.9987936 -0.032790907 
-0.17398357 0.98008925 -0.09568103 
-0.24927963 0.95519054 -0.15959543 
-0.14357467 0.975083 -0.16911407 
-0.027697178 0.98595035 -0.16472664 
0.0417567 0.9880872 -0.1481222 
0.04028037 0.98902726 -0.14213565 
-0.04227455 0.9811107 -0.1887716 
-0.17911461 0.9239668 -0.3379398 
-0.34030324 0.789394 -0.51093143 
-0.4830596 0.7012585 -0.52429956 
-0.51774627 0.73359454 -0.44020218 
-0.5058698 0.8072875 -0.3039454 
-0.34852186 0.89450204 -0.27999756 
-0.12786971 0.9410679 -0.31311446 
-0.09145887 0.94263643 -0.32104802 
-0.1481891 0.9567898 -0.25018683 
-0.16434161 0.96894366 -0.18477029 
-0.14942001 0.9806877 -0.12619641 
-0.1108728 0.9884733 -0.10309155 
-0.052766223 0.9940097 -0.09571062 
0.06993557 0.9971165 -0.029459 
0.19526713 0.9807194 0.007766855 
0.22552483 0.9650883 0.13320334 
0.1743993 0.971307 0.1617025 
0.11367147 0.9873183 0.11082144 
0.09914314 0.99154085 0.083770424 
0.11521552 0.9900486 0.080804735 
0.15685807 0.98713624 0.03094599 
0.16935043 0.9847868 -0.038928945 
0.16536072 0.985281 -0.04332605 
0.11340014 0.9933557 -0.019618593 
0.036688425 0.9990433 -0.02380033 
-0.041307587 0.9987733 -0.02730644 
-0.0769271 0.996675 -0.0268561 
-0.14494506 0.9872146 -0.066318616 
-0.050225854 0.9983426 -0.028098863 
0.060856327 0.9980985 -0.009798044 
0.14230876 0.98981917 -0.002495047 
0.0989684 0.9935345 -0.055628877 
-0.0107712895 0.9770761 -0.21261781 
-0.17334493 0.8988926 -0.40242222 
-0.3427167 0.83296394 -0.43441516 
-0.38537562 0.8574002 -0.34110224 
-0.350306 0.90374583 -0.2460268 
-0.21479852 0.9381445 -0.27156296 
-0.092242464 0.9500261 -0.29823112 
-0.12835553 0.95471585 -0.2684077 
-0.182006 0.95873696 -0.218397 
-0.1678924 0.9518502 -0.2565024 
-0.1573072 0.96209687 -0.22276488 
-0.121340625 0.98196316 -0.1449994 
-0.044839937 0.9951545 -0.08750428 
0.06375407 0.9973804 -0.034175135 
0.19337031 0.9804294 -0.036960945 
0.2330574 0.97204244 0.028598119 
0.18398081 0.982098 0.04043247 
0.08325366 0.99638504 0.01690621 
0.02498929 0.99885887 0.04069949 
0.011751273 0.9965491 0.08216945 
0.086810134 0.9957574 0.03051611 
0.166715 0.9856116 -0.027854456 
0.18232182 0.98281497 -0.028868938 
0.10703997 0.9942415 -0.0051477454 
0.022272537 0.9997511 0.0012715433 
-0.06100377 0.99748087 0.036200065 
-0.097101994 0.9935082 0.059267532 
-0.04131878 0.98951167 0.13841802 
-0.033094626 0.9867458 0.15886356 
0.055331763 0.9855528 0.1600757 
0.18423472 0.97280866 0.14035991 
0.19387448 0.97904414 0.062331486 
0.13234214 0.98778903 -0.08221009 
-0.01453717 0.96325845 -0.2681825 
-0.16641459 0.92609954 -0.338594 
-0.2059509 0.9423685 -0.26367787 
-0.1649478 0.964067 -0.20824769 
-0.06774739 0.9614041 -0.26666933 
-0.033200737 0.9553343 -0.2936567 
-0.12618656 0.96673423 -0.2224906 
-0.18551978 0.97000384 -0.15708256 
-0.1216124 0.9666117 -0.22554865 
-0.0799476 0.97113687 -0.22472554 
-0.06821051 0.984951 -0.15880449 
-0.02347656 0.99443763 -0.102677606 
0.058229726 0.99492675 -0.08203653 
0.14354488 0.9849852 -0.0959123 
0.16036877 0.98432213 -0.07342958 
0.10336789 0.99157494 -0.07806601 
-0.0058392114 0.99466103 -0.10303075 
-0.08387982 0.99560386 -0.04167818 
-0.08415453 0.9957162 0.03830681 
0.031881213 0.99948627 0.0033021579 
0.13850996 0.989731 -0.03532128 
0.14676285 0.9889022 -0.023088368 
0.053248122 0.9985406 0.009028217 
-0.047077395 0.99803686 0.04130505 
-0.14874741 0.9846113 0.091732755 
-0.2032654 0.97286457 0.1105338 
0.058232665 0.96878433 0.24096908 
0.031034144 0.9768503 0.21166143 
0.08849081 0.9809259 0.17307168 
0.18830347 0.97647196 0.10509199 
0.21569404 0.9761488 0.024692658 
0.19810273 0.9791847 -0.044191785 
0.080960296 0.986169 -0.14462511 
-0.046727348 0.9783152 -0.20178244 
-0.072375886 0.9866633 -0.14579882 
-0.023342298 0.98900574 -0.14602375 
0.046415325 0.9693643 -0.24120209 
-0.0057839905 0.96500474 -0.26216874 
-0.13901569 0.97843546 -0.15276991 