# OOMMF OVF 2.0
# Segment count: 1
# Begin: Segment
# Begin: Header
# Title: m
# meshtype: rectangular
# meshunit: m
# xmin: 0
# ymin: 0
# zmin: 0
# xmax: 1.6e-07
# ymax: 1.6e-07
# zmax: 5e-09
# valuedim: 3
# valuelabels: m_x m_y m_z
# valueunits: 1 1 1
# Desc: Total simulation time:  1.4287812739566923e-11  s
# xbase: 2.5e-09
# ybase: 2.5e-09
# zbase: 2.5e-09
# xnodes: 32
# ynodes: 32
# znodes: 1
# xstepsize: 5e-09
# ystepsize: 5e-09
# zstepsize: 5e-09
# End: Header
# Begin: Data Text
-0.023707632 -0.9958041 -0.088386565 
-0.031186124 -0.9903623 -0.13494489 
-0.017300522 -0.93072236 -0.36531717 
-0.089866154 -0.33642855 -0.93741137 
-0.09418352 0.7420185 -0.6637304 
-0.48322377 0.8580406 -0.17395756 
-0.8383144 0.4398069 0.3221784 
-0.45485297 -0.27895242 0.8457508 
-0.2748039 -0.44162214 0.85408014 
0.038139366 -0.02358244 0.9989941 
0.21055233 0.48266926 0.85011655 
-0.13263905 0.6489295 0.74919796 
-0.3372514 0.64824635 0.68267 
-0.20399955 0.8903546 0.40700513 
-0.10104756 0.9909387 0.0884862 
-0.052134115 0.9986385 0.0018333873 
0.0593784 0.9823756 -0.17723574 
-0.008369298 0.96185994 -0.27341455 
-0.009308914 0.9911304 -0.1325664 
-0.008664106 0.9991263 -0.040885076 
-0.15494865 0.9851156 0.074419804 
-0.3020674 0.9524751 0.039324928 
-0.5060873 0.8592883 0.07415653 
-0.85613793 0.4167378 0.3055446 
-0.90636885 -0.18804224 0.378333 
-0.6970002 -0.67776185 0.2341572 
-0.5220774 -0.839811 0.14883806 
-0.53073144 -0.8157007 0.23012298 
-0.6585528 0.7217427 -0.2130629 
-0.122804575 0.9865794 -0.10761079 
0.2232595 0.97402006 0.03794895 
0.32413238 0.93602747 0.13707972 
0.07996749 -0.9682026 -0.23704208 
0.06437602 -0.9557186 -0.2871546 
0.14096119 -0.781673 -0.60755026 
0.3069865 0.24388526 -0.9199344 
0.053777535 0.8643616 -0.49998704 
-0.34101278 0.93174744 -0.12472746 
-0.6636548 0.65809447 0.35563177 
-0.55397284 0.10236644 0.82621735 
-0.56359506 0.056484472 0.8241179 
-0.37514877 0.4641692 0.80237806 
-0.13651979 0.7435969 0.6545426 
-0.23513497 0.78336406 0.57537144 
-0.28043783 0.78605855 0.55087817 
-0.11990741 0.91817313 0.37759838 
-0.036255844 0.9967105 0.072482854 
0.052392833 0.99782693 -0.03995526 
0.16705279 0.9692961 -0.18043981 
0.0779992 0.96828043 -0.23738016 
-0.022641946 0.9910144 -0.13182524 
-0.039208148 0.9895163 -0.13899718 
-0.101256706 0.9928078 -0.06387327 
-0.19125073 0.9815178 -0.0067889947 
-0.323823 0.9340501 0.15062942 
-0.6686173 0.65219486 0.35720137 
-0.8815118 0.17071001 0.4402216 
-0.8131419 -0.4296614 0.39267218 
-0.7196113 -0.663345 0.20526373 
-0.7836307 -0.58674055 0.20410387 
-0.7252781 0.6844968 -0.07372819 
-0.20320484 0.9767244 -0.06868372 
0.12261208 0.99245465 -2.3586066e-05 
0.22010924 0.9733563 0.06426038 
0.31098264 -0.86145663 -0.40147507 
0.23295093 -0.8405635 -0.48906747 
0.17690115 -0.29377088 -0.93936396 
0.2095375 0.7992633 -0.5632692 
0.02023725 0.95529735 -0.29495332 
-0.22250465 0.9547312 -0.19743377 
-0.51043427 0.8580709 0.05631352 
-0.62726206 0.7080397 0.3243795 
-0.5798817 0.7757468 0.24890603 
-0.39189833 0.87617284 0.28060102 
-0.23376508 0.92093897 0.31180996 
-0.23106818 0.9203312 0.3155917 
-0.17311089 0.9122278 0.37131292 
-0.046377823 0.9344219 0.35313597 
-0.025721407 0.99288964 0.116226375 
0.03691885 0.9992637 -0.010447829 
0.13659221 0.9833098 -0.120185286 
0.0745042 0.97979695 -0.18559977 
-0.024911525 0.9754357 -0.21887167 
-0.02158926 0.94588846 -0.32377297 
-0.043141615 0.9754789 -0.21582325 
-0.11985835 0.99207705 -0.03764542 
-0.22882602 0.954027 0.1935746 
-0.48834166 0.7956144 0.35849723 
-0.63122314 0.62925696 0.4534238 
-0.703414 0.4517113 0.5487857 
-0.8772087 0.3969056 0.2701312 
-0.76427066 0.63355094 0.120430455 
-0.4048689 0.91431123 -0.010780208 
-0.13236058 0.9882242 -0.07677096 
0.06791981 0.9937273 -0.088842206 
0.13736415 0.98713726 -0.08179971 
0.6943719 -0.593304 -0.4072324 
0.68183184 -0.4087167 -0.6066763 
0.43217334 0.55700135 -0.7092079 
0.23567005 0.9362324 -0.26063102 
0.06819813 0.98462534 -0.16081676 
-0.06838961 0.974551 -0.21347882 
-0.24888769 0.961814 -0.11388093 
-0.3316016 0.9433895 0.0075309086 
-0.24510236 0.96895343 -0.032468505 
-0.18639429 0.98002994 0.06927179 
-0.19990118 0.96812105 0.15093422 
-0.2616975 0.9403662 0.21731547 
-0.20228502 0.95330024 0.22427553 
-0.03403896 0.9727554 0.2293217 
0.011218099 0.9932224 0.115687124 
0.011467638 0.9988503 0.04654907 
0.056868233 0.99818766 -0.019687233 
-0.0041148546 0.99135226 -0.13116327 
-0.045608032 0.9709323 -0.23496905 
0.0063343514 0.9486247 -0.31634018 
0.012709227 0.9866786 -0.16218436 
-0.0031881803 0.99999183 -0.0025046219 
-0.04496561 0.99233454 0.115110226 
-0.21323968 0.9641785 0.15776165 
-0.36297086 0.91531473 0.17450249 
-0.38331556 0.89887065 0.21236968 
-0.41959563 0.9057316 0.05991577 
-0.24108295 0.9704865 0.0059244595 
-0.07160079 0.9964641 -0.0439628 
-0.0045934515 0.99440074 -0.10557482 
0.112673804 0.98711354 -0.11362946 
0.19289769 0.9720932 -0.13351135 
0.86804324 0.07250013 -0.49116668 
0.6721767 0.3280016 -0.66377217 
0.31959584 0.786513 -0.5284468 
0.20454954 0.96039283 -0.18922278 
0.11079706 0.99090546 -0.07635664 
-0.0032199966 0.9907998 -0.135298 
-0.15258111 0.98188615 -0.11233303 
-0.23504578 0.9709106 -0.0456737 
-0.166932 0.9857874 -0.01889138 
-0.095149174 0.9913422 0.0904842 
-0.06189077 0.9910042 0.11866023 
-0.1452048 0.98271453 0.11483796 
-0.107955284 0.99326503 0.04207473 
0.010075099 0.9971571 0.07467463 
0.017319096 0.9954827 0.09335096 
-0.03177828 0.9966457 0.07541578 
-0.018040411 0.99843115 0.053007547 
-0.08541805 0.99508315 -0.05013187 
-0.088510364 0.98918754 -0.11693546 
-0.013299457 0.98966736 -0.14276496 
0.011517387 0.9997303 -0.020168912 
0.03920032 0.99819046 0.045598798 
0.050452754 0.9965584 0.06577064 
-0.060886677 0.9976266 0.03215653 
-0.2367277 0.9710526 -0.03189038 
-0.23008038 0.9693139 -0.08656527 
-0.16627398 0.9764284 -0.13762486 
0.0055672624 0.9952649 -0.097040996 
0.098410346 0.9915209 -0.084864475 
0.063039206 0.9917238 -0.11184887 
0.12690501 0.9905568 -0.051888876 
0.2288343 0.9726445 -0.0399688 
0.4586736 0.8809154 -0.11664746 
0.4103756 0.880043 -0.23899025 
0.33906633 0.91939753 -0.19935465 
0.30024946 0.9521063 -0.057825614 
0.2198072 0.9755038 -0.008783006 
0.06667651 0.996947 -0.04063387 
-0.11824042 0.99188626 -0.046701446 
-0.21060959 0.97567976 -0.060767367 
-0.13462684 0.9901709 -0.037910346 
0.03385797 0.9989966 0.029316315 
0.10815961 0.99412966 0.0027853989 
0.0013097684 0.9958078 -0.09146077 
0.022517532 0.988327 -0.15067391 
0.0755387 0.99314183 -0.08923727 
0.07148101 0.99736375 -0.012493185 
0.00784141 0.9990639 0.042543218 
-0.021175358 0.9967985 0.0771004 
-0.11793296 0.99295515 -0.011480616 
-0.13906047 0.98991215 -0.027131928 
-0.06193181 0.9980745 0.0034638995 
-0.010632468 0.9971444 0.07476645 
0.042438857 0.99689347 0.06635008 
0.055750944 0.99775803 0.0370239 
-0.041617326 0.9991129 0.006444358 
-0.1917664 0.9798957 -0.055045597 
-0.17119262 0.97421306 -0.14697643 
-0.091583215 0.9781818 -0.18647526 
0.033014286 0.98863804 -0.14664605 
0.1018517 0.987926 -0.11674071 
0.050863262 0.99249035 -0.11124759 
0.08045778 0.9967125 -0.009529556 
0.17468214 0.9841367 0.03100011 
0.076825894 0.99696374 0.012690176 
0.13363338 0.99102837 0.0022590924 
0.24383324 0.96969485 0.0154060675 
0.30047423 0.9537846 0.0032010188 
0.24141096 0.9704155 -0.0038121191 
0.07846634 0.9959281 0.044389047 
-0.09940799 0.9913645 0.08552488 
-0.12131998 0.9915292 0.046381075 
0.0048964256 0.9993392 0.036019217 
0.16072723 0.9868831 0.015120272 
0.09972461 0.98981565 -0.10158761 
-0.063664354 0.9705884 -0.23217449 
-0.06568452 0.96520394 -0.25311467 
-0.015870944 0.9813877 -0.19138046 
0.038720895 0.9940388 -0.10191975 
-0.001978035 0.9990376 0.043816943 
-0.028489722 0.99406123 0.105027266 
-0.09097581 0.9957558 0.013923269 
-0.13418588 0.9909492 -0.0037161056 
-0.108124085 0.9933236 0.04021751 
-0.102835946 0.9883028 0.11261592 
-0.045121975 0.99501646 0.0889176 
-0.053691283 0.99854386 0.005229124 
-0.11363545 0.9933505 -0.018491609 
-0.14145261 0.98992133 -0.0068605244 
-0.06140358 0.9971729 -0.043310933 
-0.0071780425 0.99663013 -0.081712686 
0.030880414 0.99379975 -0.10681035 
0.043671466 0.99071664 -0.12873806 
0.0046188734 0.9951071 -0.098693974 
0.03588736 0.99933773 0.006021498 
0.11608942 0.99218756 0.0456867 
-0.12343334 0.992288 -0.011348717 
-0.08265755 0.99652004 -0.010754642 
0.06284967 0.9968965 -0.047405817 
0.18383558 0.98010194 -0.074864104 
0.18191771 0.9826519 -0.036074363 
0.05898866 0.99585265 0.069267154 
-0.082422934 0.98497754 0.15174203 
-0.051356707 0.9864522 0.15580319 
0.06896738 0.99350333 0.09052463 
0.113443464 0.99351615 -0.0075067133 
-0.013257175 0.9918166 -0.12698041 
-0.13665469 0.97613627 -0.16877086 
-0.14444654 0.9823736 -0.118648306 
-0.07739425 0.99242735 -0.09538479 
-0.001972438 0.9972014 -0.07473754 
-0.033340294 0.99789745 0.055581078 
-0.07323246 0.98906034 0.12805001 
-0.110694475 0.9898567 0.08905363 
-0.2019158 0.975435 0.08807151 
-0.2725287 0.9458713 0.17622596 
-0.37116095 0.87070996 0.32265133 
-0.3750475 0.8611056 0.3432731 
-0.35913208 0.92982155 0.08034971 
-0.28774813 0.9576976 -0.0040637697 
-0.16900128 0.98486805 0.038387217 
-0.01152252 0.9996638 0.02323156 
0.04711424 0.9982115 -0.036796886 
0.05454342 0.9958731 -0.072538495 
0.016048456 0.99369144 -0.11099406 
-0.051009372 0.9954632 -0.08031907 
-0.066563495 0.9977196 -0.011176868 
-0.011285591 0.99988776 0.009854712 
-0.21975884 0.9736684 -0.060629264 
-0.19212972 0.9784961 -0.07504511 
-0.04530115 0.9855765 -0.163055 
0.10017962 0.97910607 -0.17696214 
0.12531097 0.98722506 -0.098406576 
0.048122764 0.99868095 -0.017903812 
-0.045721337 0.9976021 0.05195882 
-0.051962644 0.9926115 0.10964599 
-0.005575211 0.9985374 0.05377718 
-0.054973524 0.998424 -0.011294758 
-0.10373318 0.9931025 -0.054653604 
-0.18033418 0.98351777 0.013130727 
-0.12097897 0.94846547 0.29287788 
-0.08428954 0.9470226 0.30990872 
-0.048652716 0.9956186 0.07985346 
-0.0702342 0.99656576 0.043861724 
-0.09473453 0.9931625 0.068218276 
-0.0823586 0.99075896 0.10776793 
-0.17522743 0.9734884 0.1470226 
-0.41485325 0.88560003 0.20882854 
-0.75061893 0.5115938 0.4181424 
-0.8616605 0.14948417 0.48496985 
-0.9119211 0.39827943 0.09886017 
-0.6583378 0.75243396 -0.020848393 
-0.39079696 0.91822654 0.06432666 
-0.14523648 0.98825383 0.047547873 
-0.10035783 0.9939709 -0.04416233 
-0.14990282 0.9854718 -0.07984201 
-0.17720473 0.97975683 -0.09314091 
-0.14285761 0.9855101 -0.09144162 
-0.13251607 0.9888876 -0.06738598 
-0.12836012 0.9885024 -0.07991733 
-0.30314004 0.94734883 -0.10313222 
-0.26017898 0.95618314 -0.1342413 
-0.16494608 0.96455663 -0.20596945 
-0.05277655 0.9743453 -0.21878265 
-0.016066711 0.9871952 -0.15870564 
-0.037408542 0.99204195 -0.12022232 
-0.07577752 0.99663883 -0.031125275 
-0.12188123 0.98905563 0.08314955 
-0.123239614 0.98013264 0.15540978 
-0.07488959 0.9224639 0.3787506 
0.5123748 0.095156886 0.85347366 
0.6151042 -0.46194723 0.63894576 
0.40528944 -0.4826099 0.7764202 
0.1050104 -0.1699449 0.97984266 
-0.11968571 0.8265898 0.5499316 
-0.16479465 0.9693939 0.18198396 
-0.13757719 0.988692 0.059673093 
-0.10587175 0.9895458 0.09792995 
-0.22454213 0.96011543 0.16661094 
-0.5994098 0.7846358 0.15828694 
-0.9657274 0.076585494 0.24800295 
-0.8353216 -0.4661389 0.2914659 
-0.9347726 -0.3319646 0.12649052 
-0.9590946 0.27957812 0.044427473 
-0.7146797 0.69743556 0.053071726 
-0.45215225 0.8919303 -0.0043280153 
-0.34855065 0.9354222 -0.059142772 
-0.31991738 0.9466558 -0.038675107 
-0.23927109 0.9651678 -0.10583245 
-0.16921933 0.97148865 -0.16605647 
-0.24766292 0.9624813 -0.1108732 
-0.43346366 0.8992016 -0.059545472 
-0.50585264 0.81425995 -0.28476965 
-0.41893855 0.86472315 -0.27702793 
-0.3515202 0.9066196 -0.2333974 
-0.23502703 0.9521773 -0.19524541 
-0.14481637 0.9816455 -0.124098405 
-0.09668354 0.9923707 -0.07650383 
-0.09035065 0.9958594 0.010044326 
-0.11560432 0.9893201 0.08877736 
-0.1964479 0.9620152 0.1895654 
-0.3020657 0.7997948 0.5187337 
-0.09803725 -0.6996072 0.70777017 
0.028182657 -0.9486113 0.31518644 
-0.072867684 -0.91677547 0.39269975 
-0.27879196 -0.7033126 0.65393156 
-0.42589775 0.29363006 0.8557993 
-0.41736963 0.8315654 0.3664721 
-0.24763282 0.96065986 0.12574068 
-0.13149664 0.9891068 0.066154785 
-0.20363545 0.9745984 0.09322376 
-0.52195525 0.85078365 0.061073154 
-0.96827877 0.2437639 0.054914244 
-0.85290635 -0.4903274 0.1792483 
-0.86089736 -0.48227096 0.1620816 
-0.9766022 0.050083134 0.20914099 
-0.8051492 0.58337784 0.10679524 
-0.5482774 0.8362948 -0.0017321659 
-0.42925978 0.90225184 0.040960588 
-0.34568548 0.932793 0.101974376 
-0.22975677 0.971489 -0.058489464 
-0.29369736 0.9376305 -0.18598653 
-0.63200474 0.75399274 -0.17906691 
-0.99025774 -0.10967851 -0.085791774 
-0.79931664 -0.51973855 -0.30160382 
-0.84689856 -0.32893977 -0.41780555 
-0.7323599 0.44480744 -0.5155536 
-0.28558192 0.92264646 -0.2591651 
-0.08717771 0.9944196 -0.059413362 
-0.038589776 0.9990764 0.018898556 
-0.052843675 0.9967622 0.06060277 
-0.0836314 0.99093074 0.10517709 
-0.19183172 0.9524419 0.2367595 
-0.37563577 0.66105205 0.6495445 
-0.31947878 -0.7060241 0.6320311 
-0.22285926 -0.9356838 0.2735504 
-0.2050808 -0.9298315 0.30554095 
-0.30349368 -0.80225074 0.51408714 
-0.46900102 -0.17128693 0.8664289 
-0.562567 0.638159 0.52561533 
-0.338326 0.90571344 0.25537962 
-0.18785867 0.9711375 0.14697303 
-0.18558605 0.9716531 0.14645155 
-0.33359802 0.9283954 0.16369021 
-0.6178311 0.76359946 0.18761835 
-0.9241336 0.24716571 0.2913525 
-0.9607096 -0.03644193 0.27515283 
-0.9226989 0.26299772 0.2818846 
-0.6777844 0.71292865 0.17983618 
-0.4502181 0.88877946 0.0858769 
-0.40436947 0.90766656 0.112368934 
-0.35586149 0.9260783 0.12546599 
-0.32294193 0.94639647 0.0064974944 
-0.5339042 0.84482974 -0.034774583 
-0.97072506 0.19331482 0.14255644 
-0.803694 -0.5499528 0.22721796 
-0.3364677 -0.9340927 -0.11941675 
-0.34299847 -0.890876 -0.29781216 
-0.3826005 -0.4871592 -0.7850431 
-0.11595642 0.9141808 -0.38836518 
0.041089833 0.99577093 -0.082170226 
0.05044614 0.9981616 0.033596646 
0.034806773 0.9954665 0.088516235 
0.00698357 0.988873 0.14859875 
-0.043071408 0.95964104 0.27791008 
-0.18964335 0.71630824 0.67151916 
-0.42938152 -0.45516422 0.7800367 
-0.39799973 -0.80373526 0.4422737 
-0.4365692 -0.82211256 0.36542892 
-0.5776686 -0.58666694 0.56755704 
-0.6562964 0.11696305 0.7453823 
-0.52332443 0.7389158 0.4244232 
-0.30703768 0.922487 0.23397774 
-0.25363374 0.9614198 0.10649799 
-0.26494685 0.9595529 0.095192745 
-0.28942925 0.9327309 0.21504387 
-0.3023391 0.9114217 0.27910882 
-0.42841288 0.84145755 0.32925916 
-0.5289359 0.7940354 0.29955742 
-0.5177884 0.83802634 0.17206688 
-0.32401592 0.94142026 0.09349674 
-0.254438 0.96196544 0.09941765 
-0.3255328 0.93570215 0.13597766 
-0.28588676 0.9449679 0.15907374 
-0.2347256 0.96679795 0.10102361 
-0.45992276 0.8739677 0.15700813 
-0.8510243 -0.49703333 0.1694567 
-0.471107 -0.8416642 0.2639311 
-0.076049246 -0.9966859 -0.028875472 
-0.01362665 -0.9885785 -0.15008965 
0.14099953 -0.848791 -0.50958115 
0.034813553 0.94092816 -0.33681175 
0.06190559 0.98683864 -0.14938958 
0.047901597 0.9960544 -0.07470686 
0.028688509 0.9995524 -0.008481123 
-0.038619604 0.99571997 0.08396609 
-0.08645159 0.97206163 0.21822557 
-0.19545664 0.8460356 0.4960045 
-0.4860252 0.2622306 0.8336755 
-0.5779081 -0.3932943 0.7150817 
-0.78375834 -0.3398855 0.5198084 
-0.77686304 0.37671098 0.5045521 
-0.49979866 0.78570205 0.36451823 
-0.30955467 0.9325147 0.18598972 
-0.19691949 0.9710323 0.13534805 
-0.2888975 0.9557253 0.055924263 
-0.36674148 0.93004495 0.02274111 
-0.36639056 0.9208312 0.1335212 
-0.2513172 0.94239897 0.22073485 
-0.19308722 0.9584665 0.20990348 
-0.18300381 0.9703294 0.1580205 
-0.2105019 0.9756195 0.06209388 
-0.123128116 0.99186057 0.03243697 
-0.10439583 0.99212146 0.0692576 
-0.1945107 0.9718379 0.13302954 
-0.1650001 0.9557934 0.24338044 
-0.0043240767 0.9392782 0.34312943 
0.030577144 0.7335215 0.6789781 
-0.36090043 -0.8542625 0.37414762 
-0.08546217 -0.97332644 0.2129131 
0.016224813 -0.9981603 0.05841931 
0.19202177 -0.9810428 -0.026131287 
0.5262666 -0.8147741 -0.24328321 
0.14200118 0.98219687 -0.12298382 
-0.010699788 0.9936405 -0.112089805 
-0.029179785 0.9954991 -0.09016769 
-0.027828284 0.9986783 -0.043212157 
-0.06821169 0.9974156 0.022570673 
-0.09643809 0.9915377 0.0869067 
-0.15386799 0.94060767 0.30262512 
-0.25752997 0.7210626 0.64323187 
-0.49270236 0.42958117 0.7567724 
-0.73995614 0.5158079 0.43174893 
-0.6243778 0.7549549 0.20048891 
-0.46144584 0.87568134 0.1423028 
-0.30634663 0.9465508 0.10096266 
-0.22016917 0.97408193 0.051865358 
-0.33942685 0.94035995 -0.022642426 
-0.40643522 0.9099913 -0.0820139 
-0.41544324 0.90921086 -0.0272533 
-0.29787338 0.95171124 0.07427912 
-0.16860956 0.9810029 0.09593805 
-0.085275695 0.994514 0.06058191 
-0.0634916 0.9977601 -0.02106047 
-0.012832696 0.9999101 -0.003904477 
-0.022294598 0.9967939 0.07684326 
-0.10901293 0.9801898 0.16536064 
-0.08451909 0.9341321 0.3467763 
0.06510435 0.7633688 0.64267385 
0.0887744 -0.22402509 0.97053176 
-0.17516811 -0.88255227 0.4363686 
-0.18535087 -0.96454626 0.18787122 
0.0016957674 -0.9821196 0.1882505 
0.21295182 -0.9670451 0.13955368 
0.58200186 -0.7999565 0.1460941 
0.19385514 0.9509224 0.24117802 
-0.026154844 0.99872243 0.04323797 
-0.06733543 0.9967798 -0.043543436 
-0.07338297 0.9965536 -0.038678184 
-0.08208173 0.99662364 0.0019796984 
-0.08932309 0.9957656 0.02173371 
-0.11759669 0.9751736 0.18763693 
-0.21069941 0.89374804 0.3960052 
-0.39045838 0.8287567 0.40088004 
-0.5432222 0.8262482 0.1490758 
-0.49553096 0.868543 -0.009070858 
-0.42648837 0.9025736 0.058895756 
-0.2926124 0.95236075 0.08594755 
-0.2361493 0.9714335 0.023461714 
-0.34411785 0.93720275 -0.056868337 
-0.3944646 0.9097152 -0.12967685 
-0.4422613 0.8948441 -0.060488533 
-0.35990128 0.9293885 0.081902936 
-0.22308888 0.96893007 0.10679874 
-0.1086801 0.99399596 0.012681033 
-0.061720505 0.9948985 -0.07979765 
-0.025577374 0.9986637 -0.044906832 
-0.04509481 0.9986773 0.024701938 
-0.09834198 0.99114877 0.089179985 
-0.112743884 0.96040964 0.2547592 
-0.023211846 0.7979825 0.60223347 
0.29861087 -0.6255588 0.72076887 
0.009216336 -0.9207028 0.39015567 
-0.15623896 -0.9481903 0.27663097 
-0.16093637 -0.94717824 0.27740365 
0.002355986 -0.9193883 0.39334416 
0.28420705 -0.62386 0.72802824 
-0.02857629 0.7938096 0.60749465 
-0.11594173 0.96006835 0.25460988 
-0.10104899 0.991254 0.08488082 
-0.04842083 0.99861753 0.02045679 
-0.032669276 0.99860483 -0.041485712 
-0.06837879 0.995149 -0.070731185 
-0.11099339 0.9934461 0.027300427 
-0.21716478 0.9672254 0.13158533 
-0.34828627 0.93111664 0.1082523 
-0.43368524 0.9001111 -0.041438814 
-0.38828522 0.9126848 -0.12744033 
-0.3423301 0.93785554 -0.056896657 
-0.23922618 0.97064686 0.024811363 
-0.29067492 0.9528612 0.08696926 
-0.43317056 0.89909875 0.06312537 
-0.5069452 0.86183923 -0.01548568 
-0.5658888 0.8157747 0.119505465 
-0.4285111 0.8230169 0.37285584 
-0.24402039 0.89441526 0.37480068 
-0.13421859 0.97545254 0.1745791 
-0.09618873 0.99529904 0.011297146 
-0.08219105 0.9965911 -0.00714089 
-0.070473805 0.99674875 -0.03905768 
-0.06392843 0.99715406 -0.03996219 
-0.02358456 0.99873203 0.0444777 
0.19577041 0.9522235 0.2344026 
0.5863887 -0.7989361 0.13360165 
0.21475546 -0.96736544 0.13447832 
0.0038268056 -0.98250073 0.1862193 
-0.19031908 -0.9637034 0.18722858 
-0.18508698 -0.8798737 0.4376816 
0.07120211 -0.22042319 0.9728021 
0.060174417 0.7620586 0.64470595 
-0.08655985 0.9339606 0.34673473 
-0.11053348 0.9805375 0.16226141 
-0.023570849 0.9972044 0.07090785 
-0.018240854 0.99980485 -0.007594123 
-0.0719435 0.9971643 -0.02208121 
-0.093616195 0.99358493 0.063443 
-0.17388684 0.9790909 0.105567716 
-0.2985815 0.9506095 0.08479771 
-0.41418284 0.9099611 -0.020576417 
-0.40482032 0.9106213 -0.08300223 
-0.34355333 0.9388443 -0.023293424 
-0.22694072 0.9723431 0.05519774 
-0.308244 0.9450348 0.109063916 
-0.46945614 0.8702812 0.14906947 
-0.63578117 0.7468185 0.19504996 
-0.7650183 0.5025351 0.40274763 
-0.5267863 0.41406253 0.74232644 
-0.28831425 0.7094291 0.6431059 
-0.17297399 0.9360421 0.30643976 
-0.10829284 0.9902678 0.08742107 
-0.07547005 0.9969875 0.017895535 
-0.029943965 0.9985356 -0.04505789 
-0.026937027 0.99573857 -0.088199124 
-0.008192196 0.9939843 -0.109216005 
0.14148965 0.9820212 -0.124960095 
0.5241003 -0.8135824 -0.25179863 
0.19148594 -0.9810449 -0.029734647 
0.016887896 -0.99822927 0.057036527 
-0.08862796 -0.9727722 0.21414824 
-0.3715885 -0.8484259 0.3769558 
0.013716988 0.73916245 0.6733876 
-0.0056668497 0.9400452 0.34100315 
-0.1636752 0.95651066 0.24144955 
-0.19458497 0.9720789 0.13114594 
-0.10393283 0.99234647 0.066683024 
-0.12360086 0.9918899 0.029618181 
-0.21385793 0.9750865 0.058917865 
-0.18845771 0.9695371 0.1564661 
-0.19822946 0.9568116 0.21264228 
-0.25367135 0.9409056 0.22438276 
-0.3667186 0.92048126 0.13502511 
-0.36777702 0.92971545 0.01921642 
-0.29628658 0.95370185 0.051642746 
-0.2052284 0.9692516 0.13576695 
-0.31136122 0.93200827 0.1855125 
-0.5035595 0.7871006 0.35623097 
-0.77697587 0.38437006 0.49856624 
-0.7963958 -0.3303488 0.50658023 
-0.5906434 -0.38438776 0.7094974 
-0.5015929 0.26105148 0.8247769 
-0.21265152 0.8406584 0.49806905 
-0.09828922 0.9712715 0.2167279 
-0.044231918 0.9958977 0.07893875 
0.028064497 0.99955386 -0.010227335 
0.050453283 0.99609625 -0.072434284 
0.06320849 0.9873724 -0.14526047 
0.031932004 0.94110906 -0.336592 
0.13633415 -0.8473565 -0.513225 
-0.015179605 -0.9882768 -0.15191635 
-0.07626932 -0.9966311 -0.030159995 
-0.47524425 -0.8400282 0.2617166 
-0.85395426 -0.4915261 0.17077523 
-0.46433133 0.871616 0.1571051 
-0.23477778 0.9666793 0.102032065 
-0.2821479 0.9463141 0.15774114 
-0.3235153 0.9366932 0.13395464 
-0.2539135 0.9623793 0.096716486 
-0.32366776 0.9418631 0.09018312 
-0.5185865 0.83861804 0.16669682 
-0.5323434 0.7936557 0.2944848 
-0.43281347 0.83890694 0.33001179 
-0.30352423 0.9105016 0.28082022 
-0.28860232 0.9334912 0.21284516 
-0.26637346 0.9600756 0.08544047 
-0.26115322 0.96079224 0.09315247 
-0.31951576 0.92133236 0.22148687 
-0.5358577 0.7380812 0.4099911 
-0.6712165 0.12706877 0.730289 
-0.5824726 -0.57708454 0.57245004 
-0.43670177 -0.8179165 0.37457216 
-0.39539137 -0.79929805 0.45253554 
-0.4280037 -0.45573258 0.7804619 
-0.20803818 0.7020735 0.68103814 
-0.06107904 0.957975 0.280274 
-0.0028401879 0.98986363 0.1419926 
0.034374095 0.9958539 0.0842222 
0.053567678 0.9979384 0.03534742 
0.04248047 0.9960861 -0.07751127 
-0.11707682 0.9151516 -0.3857338 
-0.38448963 -0.48975006 -0.7825041 
-0.34389347 -0.8907884 -0.29704106 
-0.33609313 -0.93405026 -0.120795675 
-0.80539334 -0.54971695 0.22170436 
-0.97003424 0.1971271 0.14203708 
-0.53526926 0.84403527 -0.03303409 
-0.3244233 0.9458868 0.0069161854 
-0.35266978 0.9273325 0.1252137 
-0.40154505 0.9088241 0.113138914 
-0.4475557 0.8902259 0.084804945 
-0.67389894 0.717323 0.17694081 
-0.92183596 0.27083346 0.2772502 
-0.9614923 -0.036944743 0.27233768 
-0.9261466 0.23839778 0.29226533 
-0.61899734 0.7622851 0.18911332 
-0.33154204 0.9297484 0.16014951 
-0.18652582 0.97304356 0.13562559 
-0.19426152 0.9716805 0.13453485 
-0.34944698 0.9052477 0.2416888 
-0.58340544 0.63427067 0.5072859 
-0.49570233 -0.17726177 0.85021025 
-0.30741602 -0.805983 0.5058525 
-0.20072524 -0.9302855 0.30704752 
-0.22056106 -0.9349083 0.27802774 
-0.32297942 -0.7153095 0.61969084 
-0.40961945 0.659737 0.63004684 
-0.20905313 0.9530482 0.2190797 
-0.087184675 0.99211687 0.09001626 
-0.047878854 0.9974254 0.05338912 
-0.03296617 0.9992727 0.019166054 
-0.08535665 0.99473053 -0.056793313 
-0.28711885 0.92212373 -0.25932732 
-0.7358896 0.4378997 -0.51644015 
-0.84794754 -0.3280544 -0.41637158 
-0.7978611 -0.51908284 -0.30654666 
-0.99014455 -0.11203064 -0.084041074 
-0.6350635 0.751561 -0.1784671 
-0.2956832 0.93723655 -0.18482181 
-0.23072551 0.9712672 -0.058359977 
-0.3447306 0.9328366 0.104770884 
-0.4299308 0.9017702 0.04438601 
-0.5482034 0.83634484 -0.0006012657 
-0.8028102 0.5862933 0.108425975 
-0.97607523 0.05591513 0.21012089 
-0.85882 -0.48594072 0.16214113 
-0.8487767 -0.4967106 0.18126465 
-0.96906656 0.23967135 0.058886416 
-0.5196863 0.8523162 0.059019286 
-0.20482521 0.97499883 0.086163275 
-0.1355617 0.98884434 0.06172388 
-0.24932644 0.9608495 0.12084915 
-0.4254791 0.8331462 0.3533202 
-0.45296115 0.29504272 0.8412943 
-0.28459653 -0.71273255 0.6411062 
-0.08095959 -0.91743886 0.38955286 
0.017043343 -0.94904417 0.31468198 
-0.10984644 -0.70546126 0.70018446 
-0.3213726 0.80703145 0.49539882 
-0.20269889 0.96386904 0.17282854 
-0.11472143 0.99036795 0.077526405 
-0.08561692 0.99631786 0.0045305844 
-0.091758706 0.9927444 -0.07771071 
-0.14192438 0.98206514 -0.12411892 
-0.23401356 0.9522975 -0.19587584 
-0.35215598 0.9067637 -0.23187481 
-0.4175959 0.86595 -0.27521697 
-0.5054166 0.81337065 -0.28806666 
-0.43643767 0.8977137 -0.060269345 
-0.25119823 0.9612903 -0.11322696 
-0.171268 0.97100294 -0.16679507 
-0.24131133 0.9647159 -0.105318986 
-0.3230156 0.9457092 -0.03598668 
-0.3527264 0.9339513 -0.057611264 
-0.45568404 0.8901383 -0.002449571 
-0.7149855 0.6966005 0.059527397 
-0.9576099 0.28367278 0.050131008 
-0.93318546 -0.33695316 0.12501012 
-0.8328771 -0.47120407 0.29031464 
-0.96553004 0.071893744 0.2501662 
-0.59864587 0.785446 0.15715517 
-0.22720946 0.9600002 0.16363217 
-0.11078679 0.98890936 0.0989165 
-0.13690035 0.98857754 0.06302928 
-0.16182388 0.97015667 0.18057962 
-0.11894337 0.8298727 0.54512733 
0.10602641 -0.19950137 0.97414464 
0.3870335 -0.5066974 0.7703655 
0.5971518 -0.48348528 0.64004046 
0.48993114 0.10303803 0.86565053 
-0.08350599 0.92535615 0.3697877 
-0.1251099 0.98101723 0.14816466 
-0.12115433 0.98962826 0.077185936 
-0.07326642 0.9966591 -0.03609217 
-0.03420762 0.99180794 -0.12307233 
-0.012448109 0.9871045 -0.15959316 
-0.049757525 0.97456926 -0.21849278 
-0.163825 0.96538043 -0.20298266 
-0.2597651 0.95653254 -0.13254288 
-0.304311 0.9468798 -0.103988394 
-0.12973179 0.98819363 -0.081504926 
-0.1335871 0.98854667 -0.07021459 
-0.1428467 0.98530865 -0.093604 
-0.17875189 0.9793198 -0.094765104 
-0.15291841 0.9849358 -0.0807303 
-0.10417874 0.9935243 -0.045346845 
-0.14870398 0.98774064 0.047494885 
-0.3917082 0.9176176 0.06739867 
-0.65528095 0.755133 -0.019521317 
-0.9110225 0.4020093 0.09179677 
-0.86237335 0.15297648 0.48260796 
-0.74740916 0.5163814 0.41800714 
-0.41144523 0.888178 0.20457928 
-0.1785788 0.9735755 0.14233896 
-0.090778306 0.99010324 0.10702844 
-0.10019681 0.99218726 0.07433161 
-0.07111942 0.99617743 0.050721798 
-0.044798125 0.9955894 0.082431905 
-0.085112765 0.9489444 0.3037442 
-0.12897739 0.9517729 0.27837583 
-0.15939975 0.98712754 -0.013081409 
-0.08174777 0.99522185 -0.053392913 
-0.045863047 0.99893147 -0.005707051 
-0.0036203568 0.9983023 0.058134824 
-0.0521213 0.99260646 0.10961758 
-0.045200504 0.99776393 0.04923568 
0.050027117 0.9985458 -0.020089492 
0.12910126 0.9867517 -0.098255605 
0.10458688 0.97897387 -0.17513369 
-0.042984802 0.98600334 -0.16108912 
-0.1923536 0.9785032 -0.07437542 
-0.22205229 0.973172 -0.060242698 
-0.01334963 0.99986595 0.009484994 
-0.06688676 0.99768364 -0.0123958755 
-0.049339954 0.99549377 -0.08097964 
0.01712951 0.99352187 -0.112343185 
0.05552692 0.9957047 -0.074086554 
0.046451528 0.99816644 -0.038808506 
-0.012977775 0.9996766 0.021870103 
-0.16907394 0.9848641 0.038166083 
-0.28495827 0.95852315 -0.0056835446 
-0.35569507 0.9316298 0.074478455 
-0.37147248 0.8643759 0.33891404 
-0.36380097 0.8735598 0.32332984 
-0.26539594 0.94807315 0.175278 
-0.19966672 0.9763176 0.08329051 
-0.115270674 0.98991567 0.08233956 
-0.083108224 0.98865485 0.1251189 
-0.043353688 0.99742293 0.057167213 
-0.0073186946 0.9974739 -0.07065671 
-0.08066997 0.9919591 -0.09751649 
-0.14442188 0.9814065 -0.12642649 
-0.119485214 0.9761902 -0.18104148 
0.0049189306 0.9922135 -0.12445201 
0.1209313 0.99265945 0.0017330431 
0.06789904 0.99305326 0.096098244 
-0.054568034 0.9866464 0.15346381 
-0.08300149 0.98558617 0.14741376 
0.06208831 0.9958275 0.06687944 
0.18665552 0.9817957 -0.035169676 
0.18791398 0.97950953 -0.072453275 
0.063484944 0.9968977 -0.046527322 
-0.08336025 0.9964646 -0.010452703 
-0.125015 0.9920896 -0.011384022 
0.11311482 0.99255955 0.04506152 
0.03513333 0.9993689 0.0052454374 
0.004487258 0.995186 -0.09790227 
0.043588974 0.99086076 -0.12765145 
0.032441698 0.9938675 -0.10571199 
-0.0060937246 0.99661374 -0.08200018 
-0.06037971 0.99722767 -0.04348992 
-0.13950972 0.99019796 -0.006717956 
-0.11064336 0.9936792 -0.018965472 
-0.05097282 0.9986931 0.0037293588 
-0.042208638 0.99521077 0.08817089 
-0.09917335 0.98835075 0.11544526 
-0.104563996 0.9935901 0.042953715 
-0.13092206 0.99138796 -0.003066826 
-0.0890897 0.99595535 0.011664323 
-0.029394204 0.99454355 0.10009572 
-0.004873568 0.99923635 0.038770605 
0.036524333 0.9937552 -0.10543523 
-0.013704169 0.98015845 -0.1977413 
-0.05923948 0.963078 -0.26262417 
-0.049950425 0.96943367 -0.2402152 
0.111025296 0.9890169 -0.097566016 
0.16099375 0.98667735 0.023427024 
0.000102890044 0.9993242 0.03675829 
-0.124113515 0.99148846 0.039327204 
-0.09735993 0.99216163 0.07833422 
0.08421525 0.99557793 0.04162085 
0.24587573 0.9693 -0.001682903 
0.30131108 0.9535015 0.006829472 
0.24261126 0.9699619 0.017713754 
0.13383734 0.99099815 0.003215447 
0.07615843 0.9970235 0.012002077 
0.17334971 0.9844239 0.02932134 
0.079904236 0.9967498 -0.010258457 
0.04847907 0.99268204 -0.11059953 
0.09952396 0.9883388 -0.11524529 
0.032473363 0.9889627 -0.1445626 
-0.092001334 0.9782845 -0.18572916 
-0.17105547 0.9742942 -0.14659804 
-0.19052237 0.98022074 -0.053559564 
-0.03906414 0.9992042 0.008062786 
0.057782326 0.99759597 0.038254928 
0.04495804 0.99674255 0.06695536 
-0.00802745 0.99709284 0.07577322 
-0.05985618 0.99820036 0.0036588693 
-0.13821189 0.990029 -0.027205935 