# OOMMF OVF 2.0
# Segment count: 1
# Begin: Segment
# Begin: Header
# Title: J
# meshtype: rectangular
# meshunit: m
# xmin: 0
# ymin: 0
# zmin: 0
# xmax: 32
# ymax: 32
# zmax: 1
# valuedim: 3
# valuelabels: J_x J_y J_z
# valueunits: A/m2 A/m2 A/m2
# Desc: Total simulation time:  0  s
# xbase: 0.5
# ybase: 0.5
# zbase: 0.5
# xnodes: 32
# ynodes: 32
# znodes: 1
# xstepsize: 1
# ystepsize: 1
# zstepsize: 1
# End: Header
# Begin: Data Text
0 0 39500520300.47743
0 0 39872703456.97272
0 0 42541313991.505516
0 0 81975131941.32535
0 0 156042166401.96262
0 0 188229428239.51227
0 0 195142181545.38217
0 0 194857683613.5839
0 0 194664190530.61188
0 0 195296041124.68494
0 0 194192990981.28613
0 0 194033091266.95877
0 0 194701245475.6023
0 0 195294357248.3119
0 0 194905669788.379
0 0 194019961471.26868
0 0 194734259533.63242
0 0 195252818356.7974
0 0 195128067120.3497
0 0 194968352309.5734
0 0 191491950220.11115
0 0 188448293829.63803
0 0 189573790270.4547
0 0 192068678480.28247
0 0 194086025251.26697
0 0 194836852458.07004
0 0 195293172918.00964
0 0 190458407810.84988
0 0 175055264406.04312
0 0 154357092935.3594
0 0 102982460056.48283
0 0 55941386878.03392
0 0 40091243795.11154
0 0 40959753920.947334
0 0 45552610120.66333
0 0 83074214052.22508
0 0 149797885864.35083
0 0 184817657552.15564
0 0 194201011501.29245
0 0 195304059066.08475
0 0 195271133930.6165
0 0 195283386197.62955
0 0 194779701592.87503
0 0 194737530248.21997
0 0 195149345962.97122
0 0 195305455685.17523
0 0 195106321164.893
0 0 194791256477.4966
0 0 195006837615.88547
0 0 195271173899.8299
0 0 195030265638.73004
0 0 195294836307.72604
0 0 193772791538.85834
0 0 191706028399.3786
0 0 191679330383.86377
0 0 192997947527.54465
0 0 194226604635.93103
0 0 194653186780.79898
0 0 195211108681.46402
0 0 193939284679.33237
0 0 186562661571.7649
0 0 176890730150.78217
0 0 148081894662.28314
0 0 82798491947.51068
0 0 44269759063.94746
0 0 47556053346.79245
0 0 61415568328.228836
0 0 111816535840.52684
0 0 161384710515.07065
0 0 185639200369.03577
0 0 193420615510.42728
0 0 194787009863.60516
0 0 195120770984.132
0 0 195123204117.36166
0 0 194877670938.42166
0 0 194956652139.2735
0 0 195250723759.95667
0 0 195293096466.09244
0 0 195261596014.19464
0 0 195234968833.41473
0 0 195257220232.41382
0 0 195202374775.9957
0 0 194751635026.69788
0 0 195128277148.39728
0 0 195197110903.51593
0 0 194513365228.21243
0 0 194259567513.65707
0 0 194636207509.7088
0 0 194946229635.71536
0 0 194842628573.13876
0 0 194791137830.6019
0 0 195307945706.63992
0 0 193631622769.16946
0 0 191586759539.87778
0 0 187485911272.40536
0 0 172620168211.5111
0 0 132666348343.31628
0 0 128949195425.28735
0 0 139636318711.27127
0 0 164960480132.87286
0 0 180146110044.51202
0 0 189307512698.2517
0 0 193749219716.76376
0 0 194555863940.31732
0 0 194766005443.40808
0 0 194787025884.5365
0 0 194577005793.26874
0 0 194743394853.0862
0 0 195118068179.9042
0 0 195304474783.4573
0 0 195308799353.18576
0 0 195294598888.45676
0 0 195237670370.92654
0 0 194701659766.6108
0 0 194081940210.66696
0 0 194492535832.7356
0 0 195192429508.3605
0 0 195307182812.58737
0 0 195283163960.97852
0 0 195309972094.26572
0 0 195312211724.55542
0 0 195169567196.0425
0 0 194455514252.26572
0 0 194600254918.2877
0 0 195299256661.9643
0 0 195266105754.4658
0 0 195293241291.1662
0 0 195173895654.407
0 0 186887402878.644
0 0 185419914034.6924
0 0 185997063417.99524
0 0 188669864548.4771
0 0 189657677948.74075
0 0 192087532797.99274
0 0 194299263666.1616
0 0 194640696637.28003
0 0 194596360436.99203
0 0 194489794311.46265
0 0 194106603210.90393
0 0 194207864716.87598
0 0 194759058168.3707
0 0 195139243094.5029
0 0 195149280391.8127
0 0 194919616284.5818
0 0 194234871319.91064
0 0 192843926218.69324
0 0 192534710126.40384
0 0 193605597365.14304
0 0 194747451643.31293
0 0 195138560216.26154
0 0 195171032450.0649
0 0 195122668171.60992
0 0 195155471739.79483
0 0 195309910111.28308
0 0 195089813787.82834
0 0 194725432480.85455
0 0 194935519802.7314
0 0 195057978321.565
0 0 194738660995.42844
0 0 194582208368.69983
0 0 194569324685.0964
0 0 194407497295.66266
0 0 194253161663.92392
0 0 193981459585.23862
0 0 193269866154.33218
0 0 193520928934.3197
0 0 194360108771.99002
0 0 194342045879.08466
0 0 194143279264.121
0 0 194253630903.78534
0 0 194109203223.78317
0 0 193975129125.03973
0 0 194099038980.42563
0 0 194294945933.44037
0 0 194381001641.6601
0 0 194060188910.51147
0 0 192480093960.55417
0 0 190241699273.3565
0 0 190826865509.0993
0 0 193035562693.18375
0 0 194439191364.48352
0 0 194789278294.0069
0 0 194697470531.7719
0 0 194562346613.52582
0 0 194564667807.67056
0 0 194815192712.84375
0 0 194973606654.43906
0 0 195120528942.0459
0 0 195248912466.2063
0 0 195311969623.6712
0 0 195234918347.45523
0 0 195169026761.7012
0 0 195309772331.8633
0 0 195303650500.21756
0 0 195280320759.03625
0 0 195106439100.6241
0 0 194628367394.57974
0 0 194359136227.49048
0 0 194521055911.65924
0 0 194358990187.348
0 0 194215491527.91022
0 0 194488348577.73938
0 0 194483059024.55167
0 0 194038086887.54932
0 0 193144937834.3568
0 0 192314178562.68613
0 0 192570743684.39288
0 0 192573852696.65244
0 0 190608526020.95215
0 0 188774262832.4046
0 0 190518827861.8621
0 0 193209562079.75998
0 0 194442081533.53238
0 0 194635181480.7336
0 0 194330234458.2286
0 0 193803387853.22122
0 0 193187838056.74405
0 0 192810226985.05557
0 0 192214868703.55194
0 0 192452017514.9393
0 0 193877374929.61182
0 0 194927649276.6819
0 0 195201851826.15085
0 0 195180904918.68964
0 0 195295521857.84705
0 0 195290090383.41504
0 0 195295768198.61615
0 0 195308564926.3468
0 0 195231198529.40924
0 0 195119675830.88205
0 0 195017898457.0446
0 0 194919452843.51434
0 0 194956330242.8595
0 0 194990207647.0422
0 0 194655507747.43457
0 0 193704032716.48953
0 0 192038636726.25775
0 0 190434238938.5075
0 0 190800197262.49997
0 0 191263034509.6004
0 0 189971105471.16168
0 0 189437915765.36032
0 0 191117937111.75003
0 0 193248530701.89874
0 0 194285695480.17328
0 0 194435554891.22638
0 0 194120142158.84897
0 0 193294207682.79068
0 0 191969380916.29514
0 0 190907474877.2827
0 0 190260400345.0223
0 0 191312193737.80533
0 0 193664406434.94955
0 0 195025226827.7469
0 0 195213690823.53235
0 0 195080409793.89478
0 0 195281193167.4003
0 0 195296532741.75543
0 0 195307173509.81912
0 0 195311255359.93262
0 0 195311481947.5298
0 0 195312347064.181
0 0 195255831656.64636
0 0 195231720252.6027
0 0 195310221470.43
0 0 195306459512.41602
0 0 194925794064.074
0 0 193339448881.11517
0 0 191001964049.6522
0 0 189124533344.97656
0 0 189725201651.7122
0 0 190845385686.403
0 0 190711523251.9956
0 0 191427599931.9276
0 0 192687137670.45853
0 0 193832709150.33917
0 0 194389217669.24548
0 0 194365765610.0885
0 0 193958593432.1691
0 0 192946053403.21927
0 0 191647905409.81494
0 0 190866391918.53836
0 0 191125667802.24503
0 0 192673951630.89438
0 0 194410883852.7083
0 0 195186221715.55383
0 0 195220090113.22946
0 0 194986063349.8887
0 0 193258964091.68796
0 0 193483637628.04315
0 0 193926162706.03073
0 0 194603487950.85056
0 0 195162631134.40695
0 0 195311444246.73227
0 0 195289471502.48404
0 0 195305410060.92065
0 0 195255614374.6529
0 0 195286707070.68314
0 0 195061862774.27365
0 0 193228947090.68948
0 0 190540260016.8603
0 0 189098597107.717
0 0 189975287122.69592
0 0 191046817139.67062
0 0 191674641421.4707
0 0 193285684106.98233
0 0 194400913461.30078
0 0 194806681672.4778
0 0 194815063846.35516
0 0 194507686363.0343
0 0 193874661744.12784
0 0 192930444896.52548
0 0 192318330330.2632
0 0 192258748302.32355
0 0 193019239269.4071
0 0 194150460141.34308
0 0 194901684086.98578
0 0 195173005882.53766
0 0 194990338677.78857
0 0 194410800423.62024
0 0 160980319523.40247
0 0 169267519752.43658
0 0 181375212347.8236
0 0 189943163161.28235
0 0 193660249431.22946
0 0 195070573760.96057
0 0 195228351641.61804
0 0 195290046133.64728
0 0 195311780699.78287
0 0 195265641481.64502
0 0 194782206164.55972
0 0 193245983155.19073
0 0 191372144446.88605
0 0 191052424659.45157
0 0 191927286969.46118
0 0 192284686735.6534
0 0 193109279485.15735
0 0 194604056218.79593
0 0 195176032599.6236
0 0 195222465518.6083
0 0 195028990374.96313
0 0 194554248592.1039
0 0 193886050322.64288
0 0 193283655348.03067
0 0 193155649362.34293
0 0 193353357139.19052
0 0 194009594046.2014
0 0 194554019107.4296
0 0 194735514106.89783
0 0 194808415532.47415
0 0 194477478490.34546
0 0 193798346302.26773
0 0 45737476683.95776
0 0 57925556709.19525
0 0 118599335976.63734
0 0 174555037727.67618
0 0 190052454859.59875
0 0 194307080111.3033
0 0 195170150751.2306
0 0 195306360369.5444
0 0 195294123432.92883
0 0 195111500516.56357
0 0 194537661817.6483
0 0 193450585785.80264
0 0 192538860100.84134
0 0 192929028880.55762
0 0 193779849898.48947
0 0 193931362417.12875
0 0 194503145077.3354
0 0 195160978235.682
0 0 195297053306.09668
0 0 195286765939.08188
0 0 195068303718.1092
0 0 194531507219.06302
0 0 193829982118.55225
0 0 193324690590.43835
0 0 193342228057.22287
0 0 193359216104.51953
0 0 193174119775.75473
0 0 192520847072.8628
0 0 191885066367.51022
0 0 192139378738.2243
0 0 191658108260.55502
0 0 190583339293.99298
0 0 40239863092.57326
0 0 42414884994.45828
0 0 60620799582.520256
0 0 150331139307.31012
0 0 186255671154.73575
0 0 193703046770.92307
0 0 195150887754.96973
0 0 195311939952.7822
0 0 195309992094.76852
0 0 195238702319.58884
0 0 194919298459.08282
0 0 194159230385.79245
0 0 193417822277.68085
0 0 193854958754.668
0 0 194697668964.3434
0 0 194950465997.52817
0 0 195141371277.7859
0 0 195267393153.35672
0 0 195283131657.15375
0 0 195237520462.76968
0 0 194831579912.47916
0 0 193864817029.06146
0 0 192663245489.42368
0 0 192356130875.50394
0 0 193121345316.18036
0 0 193086961208.87546
0 0 191134349615.81204
0 0 187350658521.48138
0 0 185134563175.5352
0 0 184936938403.54953
0 0 179944884336.27316
0 0 173480429526.6731
0 0 39426546240.50167
0 0 40393775412.179085
0 0 47755445145.458786
0 0 139978667890.39774
0 0 184892415157.43085
0 0 193468641138.4672
0 0 195062310221.0338
0 0 195263312955.6944
0 0 195280032427.34067
0 0 195286198918.25443
0 0 195227656013.12042
0 0 194918054099.1388
0 0 194465039089.29694
0 0 194712199272.02106
0 0 195164268525.14243
0 0 195232407021.4913
0 0 195152785563.15317
0 0 195148414280.34427
0 0 195240710242.76974
0 0 195233383753.28854
0 0 194750675354.80405
0 0 193271073001.52762
0 0 191287532372.42957
0 0 191145629166.50858
0 0 192660411491.9383
0 0 192686205687.95465
0 0 189695923543.9742
0 0 184414907301.36777
0 0 181484898641.31165
0 0 176639799201.3118
0 0 154009539963.2785
0 0 129188255217.01561
0 0 39351743952.79902
0 0 40344486327.94616
0 0 47915979327.85897
0 0 145217075971.13004
0 0 186356637473.64413
0 0 193257902375.6853
0 0 194649164990.40808
0 0 194864079862.99902
0 0 195030346324.02686
0 0 195244553329.4578
0 0 195290945238.5625
0 0 195227132759.22784
0 0 195090248526.57944
0 0 195182036642.19006
0 0 195293218333.707
0 0 195219496975.3041
0 0 194883176534.056
0 0 195032827730.19583
0 0 195310699437.25873
0 0 195309620143.99503
0 0 195061501671.0839
0 0 193422289422.00772
0 0 190445987422.60666
0 0 189540200120.9945
0 0 191321565181.97827
0 0 192015953487.44684
0 0 190093227412.19464
0 0 186430284450.219
0 0 183349350576.62637
0 0 171217613954.20428
0 0 117762216473.44305
0 0 73618545095.48666
0 0 39826810951.25964
0 0 42270430659.41503
0 0 63483364418.94185
0 0 160371258841.01675
0 0 190014044971.43716
0 0 193851180740.41632
0 0 194644543899.97223
0 0 194762951786.93018
0 0 194963636051.636
0 0 195227205881.75607
0 0 195297275915.04288
0 0 195280031676.31723
0 0 195210382335.30438
0 0 195194247650.8086
0 0 195218114050.90167
0 0 195008436370.45343
0 0 194688511274.40298
0 0 195139073228.82507
0 0 195278917877.73508
0 0 195272538854.90555
0 0 195162027426.8874
0 0 193711673158.37808
0 0 190230816177.54837
0 0 188125371636.78827
0 0 189752848450.83536
0 0 191418481664.2761
0 0 190636766083.29913
0 0 187964683652.10175
0 0 185191529360.92117
0 0 168872572959.4788
0 0 68584716102.28859
0 0 46912945065.046936
0 0 42641904584.57625
0 0 49485957699.2895
0 0 103411232007.1612
0 0 177629347505.14273
0 0 192914166787.5386
0 0 194582124478.97742
0 0 195024474416.10626
0 0 195143945253.12872
0 0 195245099032.95813
0 0 195301942459.3087
0 0 195296734855.19757
0 0 195196943044.26157
0 0 194979031561.53638
0 0 194743659609.32138
0 0 194686588570.8119
0 0 194600350412.97287
0 0 194647658892.77023
0 0 195189943652.52658
0 0 195264102424.3468
0 0 195236593333.68048
0 0 195261168807.8797
0 0 194146193744.71466
0 0 190602924157.99503
0 0 187679360746.02676
0 0 188849802002.98166
0 0 191222938419.83698
0 0 191750544866.54993
0 0 190852807201.6062
0 0 189416676999.82227
0 0 173597613390.7157
0 0 43479270628.39036
0 0 40807488108.8923
0 0 90444175363.69151
0 0 109390349316.93979
0 0 157413973822.75262
0 0 188383066253.29193
0 0 194062054542.02988
0 0 194884904795.1973
0 0 195234025343.71362
0 0 195307742590.20517
0 0 195310935631.91187
0 0 195309862209.33258
0 0 195105107076.52805
0 0 194383752249.19846
0 0 193790442785.57022
0 0 193559425133.1342
0 0 193805152238.7267
0 0 194273844184.7265
0 0 194625088650.02313
0 0 195162577804.47876
0 0 195257371155.99124
0 0 195105724697.066
0 0 195310802544.1534
0 0 194653432555.26886
0 0 191589986052.27808
0 0 188571484164.96442
0 0 189374875292.9668
0 0 192302072371.35947
0 0 193812345473.53186
0 0 193663332995.7861
0 0 191864334815.19247
0 0 175549969211.5264
0 0 40464003400.198906
0 0 39540982171.97874
0 0 169353363622.85437
0 0 172313445720.75543
0 0 183509659012.9235
0 0 191708732104.2899
0 0 194000891164.08768
0 0 194809309933.06293
0 0 195273034010.97894
0 0 195301497734.87338
0 0 195276974666.71802
0 0 195308962325.04324
0 0 194773019268.795
0 0 193133573872.39557
0 0 191835665955.7798
0 0 191651862663.8241
0 0 192787052818.92056
0 0 194056622850.0382
0 0 194603504038.27545
0 0 195144717781.25723
0 0 195204979943.22443
0 0 194768114947.29855
0 0 195132911931.95004
0 0 195142017607.8804
0 0 192812948971.24402
0 0 189403971986.46146
0 0 189611035532.55203
0 0 193217001849.0382
0 0 195138655117.5857
0 0 195273124011.82004
0 0 194314897788.70874
0 0 176958267174.29538
0 0 40400426179.493965
0 0 39517380645.91646
0 0 191536478475.42056
0 0 190390809738.82294
0 0 191115564072.73746
0 0 192892274360.14966
0 0 193838085833.24536
0 0 194694834020.75998
0 0 195279343385.20874
0 0 195258069239.64288
0 0 195171037729.92902
0 0 195300937699.77078
0 0 194917722337.72775
0 0 193180269474.68643
0 0 191112470621.75656
0 0 190441231991.38528
0 0 192100939370.90372
0 0 193768189760.91907
0 0 194365997188.6889
0 0 195018457085.422
0 0 195192553492.29755
0 0 194247023758.2803
0 0 194422041433.91348
0 0 195277084657.82373
0 0 194088416715.70703
0 0 190035055256.04675
0 0 188944292372.683
0 0 192913761669.89856
0 0 195289728737.3523
0 0 195131241504.02307
0 0 195292250406.7882
0 0 182450440062.76566
0 0 44368433301.269005
0 0 41334371736.11027
0 0 195091087894.32828
0 0 194606805691.9423
0 0 194069515944.28464
0 0 193809415493.44678
0 0 193850196079.6349
0 0 194609206609.17352
0 0 195276859005.5532
0 0 195192357329.10916
0 0 194961985239.53372
0 0 195192273785.22556
0 0 195197433253.64102
0 0 194078006890.98224
0 0 192222551007.8432
0 0 191376589974.47357
0 0 192482703998.6813
0 0 193428749972.83746
0 0 193450536649.89987
0 0 194145738515.36655
0 0 195312498785.334
0 0 194123693953.05316
0 0 193733035663.92914
0 0 195003146207.66388
0 0 194653890594.51132
0 0 190475194165.23886
0 0 188376974870.73114
0 0 191965119474.24585
0 0 195111617416.85553
0 0 195206763429.18692
0 0 195223710342.09662
0 0 193309861625.99973
0 0 133733481662.36943
0 0 93453835551.33716
0 0 195116935011.12366
0 0 195300286965.95273
0 0 195193192487.07153
0 0 194558297931.4199
0 0 193935956393.61224
0 0 194399817580.92398
0 0 195179971419.6656
0 0 195287787739.40784
0 0 195149160883.7178
0 0 195247950711.43176
0 0 195269605129.2037
0 0 194706434917.31302
0 0 193628211782.528
0 0 193204127311.76575
0 0 193639890182.32828
0 0 193580940155.20535
0 0 192480850596.1451
0 0 192399750770.93332
0 0 194844235411.6288
0 0 195028400775.12808
0 0 194623443859.19885
0 0 195246619042.9424
0 0 194368157671.58136
0 0 190083592951.5565
0 0 187798005196.0109
0 0 190673528378.77274
0 0 194115114930.81192
0 0 195096796377.6314
0 0 195236826182.40884
0 0 194806393952.64798
0 0 186885820655.01474
0 0 169297361247.78763
0 0 194766141085.49524
0 0 195109532701.13034
0 0 195311066995.5243
0 0 194822212823.41672
0 0 193947484329.1591
0 0 194082002948.64282
0 0 194876567719.45914
0 0 195248510451.1022
0 0 195309809499.34613
0 0 195311156793.44992
0 0 195274686864.65802
0 0 195020843940.92413
0 0 194524974814.56744
0 0 194488795643.43265
0 0 194722838102.48804
0 0 194390030414.74323
0 0 192696620845.1841
0 0 190875163475.74887
0 0 192629219178.78787
0 0 194824563413.00876
0 0 195237796358.50955
0 0 195067952323.909
0 0 193667161976.9435
0 0 190118275393.2353
0 0 188065806884.86826
0 0 189120243686.43698
0 0 191458555876.24518
0 0 192969229912.0176
0 0 193624242171.0742
0 0 194097134995.51743
0 0 193067069968.41547
0 0 189752262310.69922
0 0 195210126957.65714
0 0 195306979638.22488
0 0 195225557099.65527
0 0 194689948425.3287
0 0 193903917327.3653
0 0 193867382780.4375
0 0 194573226065.60425
0 0 195105343459.8133
0 0 195279960950.80807
0 0 195312339774.66144
0 0 195311951025.8669
0 0 195216044662.0005
0 0 194946375167.26123
0 0 194958157711.6574
0 0 195108222126.9526
0 0 194915906937.74948
0 0 193623148592.22928
0 0 190718630448.8864
0 0 189491795129.8217
0 0 191550406411.6098
0 0 193366139023.5215
0 0 193864344219.01962
0 0 193199460497.84232
0 0 191208075317.17328
0 0 189372984312.99445
0 0 188018721778.66183
0 0 188283132375.6074
0 0 190109397326.072
0 0 191451958577.55762
0 0 193122956715.19778
0 0 193878496593.84674
0 0 193593943098.64548
0 0 195067454712.18976
0 0 194828668973.37543
0 0 194608775910.8928
0 0 194398028059.13327
0 0 194012981286.76044
0 0 193813608833.2963
0 0 194321006561.48303
0 0 195103143467.02753
0 0 195310042038.04205
0 0 195185235951.3611
0 0 195191484046.48517
0 0 195311970125.53735
0 0 195152107982.90994
0 0 195014201189.70898
0 0 195064910926.41327
0 0 194973458179.7141
0 0 194307426451.777
0 0 192056387777.21216
0 0 188963177783.7305
0 0 189140093319.1513
0 0 191218765291.94214
0 0 192178225259.5348
0 0 192188423477.04602
0 0 191738098110.59747
0 0 190799518122.1576
0 0 188837812275.823
0 0 188155475267.2244
0 0 189804278737.33676
0 0 191353424427.2037
0 0 193142850289.9512
0 0 194055951728.0777
0 0 194305805567.1951
0 0 193303573571.45343
0 0 192848264523.5069
0 0 193147775741.36462
0 0 193835417039.59283
0 0 194027207781.70547
0 0 194009747647.4024
0 0 194600033500.36813
0 0 195302226669.75546
0 0 194998866362.95673
0 0 194607876402.93216
0 0 194780368763.412
0 0 195197123092.80026
0 0 195307939182.41562
0 0 195126126649.3858
0 0 194968003614.64163
0 0 194833762060.33423
0 0 194589761361.16818
0 0 193675336905.35654
0 0 191230200163.95303
0 0 189538109319.03958
0 0 189832787750.41364
0 0 189785844813.08063
0 0 189874861278.20792
0 0 191222904960.39456
0 0 191579438992.70792
0 0 190327393827.01297
0 0 189881170141.20798
0 0 191011330559.8603
0 0 192008075055.96204
0 0 192952020889.49005
0 0 193266593891.6727
0 0 193512870699.1956
0 0 189774886005.23886
0 0 189618355144.95447
0 0 190700694168.65384
0 0 192255425253.03314
0 0 193414122386.90906
0 0 194305457751.5902
0 0 195122507253.8858
0 0 195235321415.11652
0 0 194753181774.90018
0 0 194535554528.05844
0 0 194644351950.7167
0 0 194859769314.8801
0 0 195187817411.12933
0 0 195285930093.10925
0 0 195083168864.35535
0 0 194765965352.9659
0 0 194521875562.50967
0 0 194458346021.52957
0 0 193610393549.80002
0 0 191722996316.9387
0 0 189908637551.1929
0 0 188418267259.25946
0 0 188501419447.37488
0 0 190947653065.694
0 0 191792346139.942
0 0 190835840503.33932
0 0 190552310292.68762
0 0 191035314475.16705
0 0 191515810401.67795
0 0 191511709264.83517
0 0 190710491116.08066
0 0 190497295804.35464
0 0 182828879348.84396
0 0 184826347904.91125
0 0 187915929055.5117
0 0 190450075155.18283
0 0 192694410406.01044
0 0 194534861925.29196
0 0 195277067703.32733
0 0 195254754644.92398
0 0 195070103508.73196
0 0 194749196796.7685
0 0 194237068721.07855
0 0 193890963325.43756
0 0 194680656671.05298
0 0 195308516195.36038
0 0 195195255541.7242
0 0 194846527371.1594
0 0 194401923084.8321
0 0 194451930675.85626
0 0 194513683825.4842
0 0 193951499241.78412
0 0 192620138322.29648
0 0 191083273914.59155
0 0 190975831222.7479
0 0 192486560547.09116
0 0 192697155296.598
0 0 191546918255.38333
0 0 191258065243.88876
0 0 191616027247.7667
0 0 192316559063.20926
0 0 192044884317.58594
0 0 190440942994.07
0 0 189312793395.77823
0 0 161961532752.2292
0 0 173071789086.84415
0 0 184192411793.91324
0 0 190079743834.2309
0 0 193137221137.72922
0 0 194870869369.4126
0 0 195302993083.48297
0 0 195301179286.31134
0 0 195156330530.4586
0 0 194383362204.89587
0 0 193025591563.209
0 0 192560944061.76776
0 0 194245520273.7249
0 0 195310549366.9909
0 0 195080596434.30728
0 0 194882258710.83572
0 0 194802529281.41202
0 0 194770771517.97607
0 0 194878417380.10626
0 0 195010306548.15195
0 0 194790667721.92697
0 0 194004361361.42664
0 0 193647870046.27573
0 0 194116489541.797
0 0 194034862740.88837
0 0 193316451011.16074
0 0 193441030814.2427
0 0 194023069113.06885
0 0 194529556791.9457
0 0 193861842665.08185
0 0 189282107385.84003
0 0 180790780251.72632
0 0 113905900998.92566
0 0 144762692243.5632
0 0 176361201253.84244
0 0 190048195401.28595
0 0 194097221429.49222
0 0 195185314777.74753
0 0 195310473565.77615
0 0 195272027470.08328
0 0 195017804323.84366
0 0 193951314964.91928
0 0 192489401489.2082
0 0 192304462883.23502
0 0 194096923527.23785
0 0 195295572328.89062
0 0 195137030356.26047
0 0 195154246041.10007
0 0 195286118654.47894
0 0 195274685621.3036
0 0 195180310688.80542
0 0 195235445855.2543
0 0 195222211606.6174
0 0 194743929504.08606
0 0 194120140695.98557
0 0 194343874590.3041
0 0 194646226832.2512
0 0 194578709769.17123
0 0 194717318377.39917
0 0 194994409179.46005
0 0 195102929138.51468
0 0 193559660340.94833
0 0 157558301180.3886
0 0 57670595377.19915
0 0 72702676325.45947
0 0 107702403172.2166
0 0 161333694197.4558
0 0 188085304369.4588
0 0 194317950773.22446
0 0 195203685621.67886
0 0 195311099026.54816
0 0 195263785293.55392
0 0 194898142774.77148
0 0 193806068381.51462
0 0 192630261707.55188
0 0 192627565403.09305
0 0 193972193941.8808
0 0 195172164640.1816
0 0 195287613544.01706
0 0 195308803475.72122
0 0 195239030518.23624
0 0 195274094065.11105
0 0 195284603844.52686
0 0 195218917854.08307
0 0 195119347091.38284
0 0 194427439388.76834
0 0 193347222100.24872
0 0 193511152763.5573
0 0 194455394829.6629
0 0 194785012840.40164
0 0 194882271550.8545
0 0 195021083357.94714
0 0 195112140134.61697
0 0 195002060970.66052
0 0 39075162167.918076
0 0 39142027815.117035
0 0 59666132758.66631
0 0 87450981485.3848
0 0 146704606327.34286
0 0 184277455527.07623
0 0 193598874401.72263
0 0 194905246132.93887
0 0 195214506426.61725
0 0 195300835625.40564
0 0 194976906772.12997
0 0 194076454520.0509
0 0 193181751744.1641
0 0 193294574207.31384
0 0 194132974920.17606
0 0 195072453609.41385
0 0 195311689724.40985
0 0 195242579723.90427
0 0 194841428571.71042
0 0 194977765952.761
0 0 195297450302.87973
0 0 195247116116.2036
0 0 194852822121.37604
0 0 193569830745.5396
0 0 191875632654.29922
0 0 191862419390.93298
0 0 193593973752.31165
0 0 194384303711.392
0 0 194455661689.39166
0 0 194443262667.27393
0 0 194287413823.66385
0 0 193895083878.99118
0 0 39128182478.00392
0 0 39065513004.82291
# End: Data Text
# End: Segment
