# OOMMF OVF 2.0
# Segment count: 1
# Begin: Segment
# Begin: Header
# Title: m
# meshtype: rectangular
# meshunit: m
# xmin: 0
# ymin: 0
# zmin: 0
# xmax: 1.6e-07
# ymax: 1.6e-07
# zmax: 5e-09
# valuedim: 3
# valuelabels: m_x m_y m_z
# valueunits: 1 1 1
# Desc: Total simulation time:  3.3010915591169203e-11  s
# xbase: 2.5e-09
# ybase: 2.5e-09
# zbase: 2.5e-09
# xnodes: 32
# ynodes: 32
# znodes: 1
# xstepsize: 5e-09
# ystepsize: 5e-09
# zstepsize: 5e-09
# End: Header
# Begin: Data Text
0.2499798 -0.9679337 0.02478879 
0.5716414 -0.81967443 -0.03687759 
0.5881546 0.7967135 0.13900262 
0.17914572 0.9838146 0.0039721895 
0.015295534 0.99600726 -0.0879524 
-0.011129223 0.9928221 -0.11908135 
0.023053894 0.9934303 -0.112093195 
0.06199663 0.9928625 -0.10188471 
0.103895575 0.98920983 -0.10329407 
0.1589191 0.98423195 -0.07766774 
0.18309627 0.9830615 -0.008114659 
0.1561369 0.9865899 0.047558073 
0.11272229 0.9922297 0.052668262 
0.07740106 0.99668175 0.025189323 
0.05292166 0.99859834 0.0008484025 
0.033719573 0.9994228 -0.004153268 
0.00985983 0.9998448 -0.01460354 
-0.026117913 0.9986446 -0.04501994 
-0.055975422 0.99589205 -0.071175456 
-0.05821022 0.9953801 -0.07635553 
-0.050155263 0.99578583 -0.07678008 
-0.055075847 0.9942998 -0.09129424 
-0.085178025 0.99011403 -0.111440405 
-0.13056505 0.9843515 -0.11834307 
-0.16860764 0.980794 -0.09805468 
-0.20647873 0.9770044 -0.053187508 
-0.2533104 0.9673592 -0.007074371 
-0.29778454 0.95433635 0.023804357 
-0.32875863 0.94353515 0.04073462 
-0.3477204 0.9363144 0.049050175 
-0.3641594 0.930023 0.049448997 
-0.37362945 0.9264387 0.045962445 
0.4702491 -0.8596255 0.19977449 
0.7608636 -0.620352 0.19039465 
0.4529356 0.86325014 0.22281937 
0.09606862 0.993825 0.055522367 
-0.030605584 0.9988213 -0.03767484 
-0.045957204 0.9954327 -0.083677344 
-0.011399766 0.9951765 -0.097436875 
0.030590892 0.9955318 -0.08933557 
0.061539795 0.9949754 -0.07897332 
0.10079889 0.9927775 -0.065057755 
0.13106851 0.9910979 -0.023367092 
0.12620708 0.99190193 0.014229612 
0.10529811 0.99430025 0.016717365 
0.0802979 0.9967706 0.0008145601 
0.058098603 0.99829334 -0.0059241354 
0.043868795 0.9990317 0.003342111 
0.023786532 0.99971473 -0.002149453 
-0.011722909 0.9993619 -0.033741314 
-0.045470174 0.9970333 -0.06210537 
-0.057860937 0.995918 -0.069278836 
-0.05965444 0.9960215 -0.066201426 
-0.06918888 0.9949068 -0.07330326 
-0.09208382 0.9916912 -0.08982922 
-0.116416425 0.989011 -0.09112981 
-0.13814703 0.98857856 -0.06023081 
-0.17237835 0.9849369 -0.013601317 
-0.21410729 0.97661537 0.019510569 
-0.24614286 0.9685834 0.035495643 
-0.2653388 0.9631205 0.04465618 
-0.27900425 0.9591351 0.047081206 
-0.29201394 0.9555864 0.0397822 
-0.2972161 0.95432615 0.030403 
0.7716644 -0.061170645 0.63308156 
0.6952266 0.3759723 0.6126213 
0.24054737 0.9313704 0.2732879 
0.02141797 0.99503887 0.09715437 
-0.052037373 0.99855864 0.013148113 
-0.058439605 0.9974109 -0.041910022 
-0.038134087 0.9965039 -0.07433631 
-0.005271055 0.99697095 -0.07759597 
0.023064828 0.9978582 -0.06121272 
0.05488697 0.99733275 -0.04811391 
0.08305014 0.99622446 -0.025288245 
0.08361201 0.99646604 -0.00802474 
0.074697465 0.9970217 -0.019185103 
0.06982051 0.996924 -0.03560621 
0.07125093 0.99706745 -0.027924273 
0.072052844 0.9974004 0.0009685735 
0.048918996 0.99875426 0.009847971 
0.001173704 0.9998934 -0.014551482 
-0.046629522 0.99803835 -0.041776106 
-0.07118417 0.9961165 -0.05181435 
-0.07365268 0.9960728 -0.0491363 
-0.07557027 0.9956857 -0.05384442 
-0.08270561 0.9940184 -0.07132505 
-0.08450164 0.9937919 -0.0723688 
-0.09603947 0.994697 -0.03680147 
-0.13438062 0.9909175 0.0049312795 
-0.17643291 0.98410696 0.020123906 
-0.19894218 0.9798037 0.020168789 
-0.20990449 0.9774469 0.023187045 
-0.22253828 0.97466534 0.02245645 
-0.23460826 0.97204477 0.009388398 
-0.23704872 0.9714843 -0.0051181214 
0.41520956 0.84991014 0.3244287 
0.26347616 0.92784745 0.26396865 
0.064522825 0.99098915 0.11737673 
-0.023300806 0.9988721 0.041372135 
-0.043833088 0.999031 -0.0039733155 
-0.0312742 0.99867785 -0.040799636 
-0.018763043 0.998224 -0.056539834 
-0.0084033515 0.9984427 -0.055150352 
0.0069102156 0.9990212 -0.04369286 
0.029603846 0.9990342 -0.032468565 
0.046497677 0.9987436 -0.018688561 
0.04046012 0.99902934 -0.017416356 
0.038646676 0.99835414 -0.042374052 
0.058051873 0.99636126 -0.062404994 
0.084946685 0.9952257 -0.04806248 
0.09632894 0.9953261 -0.0068414803 
0.0652531 0.9976791 0.01945498 
-2.4411936e-05 0.9999516 0.009842301 
-0.06357734 0.99787885 -0.013996294 
-0.08973393 0.99553895 -0.029155053 
-0.07560187 0.9966286 -0.031870574 
-0.05846406 0.99757546 -0.037752476 
-0.050757322 0.9970133 -0.058209527 
-0.044148583 0.9966885 -0.0682869 
-0.059409786 0.9972559 -0.04417346 
-0.10640912 0.99417436 -0.017159266 
-0.15172708 0.9882908 -0.016133647 
-0.17146204 0.98491526 -0.023295771 
-0.1826654 0.98298705 -0.019232161 
-0.19964921 0.97975606 -0.014773409 
-0.21351562 0.9766462 -0.023946734 
-0.21464923 0.97600734 -0.03654521 
0.09909045 0.99348545 0.056283876 
0.037386805 0.99883366 0.030553171 
-0.024929166 0.9995892 -0.0141409645 
-0.045947462 0.99821115 -0.038253568 
-0.038375635 0.9975037 -0.05927668 
-0.0065257745 0.99686384 -0.07886657 
0.024708174 0.9975075 -0.066093236 
0.03111059 0.99868935 -0.0406417 
0.029069854 0.99917614 -0.028320257 
0.02899453 0.9993619 -0.020861562 
0.020351995 0.999694 -0.014063671 
0.0032816513 0.99970526 -0.02405447 
0.011892434 0.99858314 -0.051869188 
0.05028982 0.9967833 -0.062402003 
0.08440421 0.99563086 -0.03994068 
0.09329212 0.9956379 0.0013449471 
0.060522664 0.9976497 0.03212653 
-0.00965261 0.9994243 0.03252587 
-0.07670703 0.9969969 0.010649461 
-0.090872146 0.99574286 -0.015442285 
-0.054153167 0.9980511 -0.03100668 
-0.021105016 0.9990944 -0.03694452 
-0.01231177 0.9985433 -0.05253233 
-0.017708294 0.9973794 -0.07014903 
-0.043917056 0.9968925 -0.06539634 
-0.09218248 0.994286 -0.053832103 
-0.13498907 0.98936766 -0.054125335 
-0.1550087 0.98627836 -0.056809 
-0.16972342 0.98434675 -0.047492474 
-0.1883215 0.9814762 -0.035207473 
-0.20054024 0.9790521 -0.035222497 
-0.19960864 0.9790092 -0.04120084 
-0.0018028169 0.9980197 -0.06287653 
-0.01924302 0.9974372 -0.06891206 
-0.032481484 0.99638975 -0.07843714 
-0.03191111 0.9956682 -0.087331094 
-0.022573782 0.99477875 -0.099527396 
0.0055042855 0.99369437 -0.11198757 
0.050681792 0.99471 -0.08934997 
0.07280529 0.99629724 -0.04573035 
0.07102054 0.99721587 -0.022729011 
0.055736784 0.9983819 -0.011272511 
0.02218691 0.99974996 -0.002783352 
-0.011958611 0.99986804 -0.011002897 
-0.0091839945 0.9994869 -0.030684689 
0.024390839 0.9992272 -0.03082342 
0.04717203 0.99883634 -0.010043782 
0.049490105 0.9986764 0.014009405 
0.029143468 0.9990458 0.032532245 
-0.01904601 0.9991515 0.036517672 
-0.061680708 0.99792963 0.01821756 
-0.054010723 0.99837273 -0.018301293 
-0.0104892915 0.9989236 -0.04518625 
0.0149483215 0.99884593 -0.045644097 
0.0054899156 0.9987945 -0.048779853 
-0.020177864 0.99757665 -0.06658575 
-0.049500898 0.99596703 -0.07482951 
-0.08595873 0.99404955 -0.06690743 
-0.11870441 0.9913093 -0.05670381 
-0.1377249 0.98897296 -0.054447144 
-0.15206657 0.9872391 -0.047272444 
-0.16530612 0.9856644 -0.033758048 
-0.17118178 0.9848903 -0.026231164 
-0.16714855 0.985604 -0.025419127 
0.011396837 0.9988459 -0.04666005 
-0.001422451 0.99889684 -0.046938054 
-0.013624397 0.9983633 -0.055543195 
-0.01725763 0.9965572 -0.08109251 
-0.009422526 0.99384314 -0.11039507 
0.013503267 0.9919684 -0.12576336 
0.05600996 0.9935005 -0.09909487 
0.08209013 0.99556047 -0.04605055 
0.08735726 0.99613446 -0.009208154 
0.06917734 0.9974572 0.017141784 
0.02095938 0.9994134 0.02708596 
-0.021230252 0.99967295 0.014258469 
-0.026638085 0.99964505 -0.00058422517 
-0.013924705 0.9999008 0.00213776 
-0.013641276 0.9998752 0.007982335 
-0.012673358 0.99990785 0.0048764003 
-0.0043598185 0.999929 0.011092497 
-0.009908248 0.9996434 0.024800368 
-0.018800572 0.999713 0.014846743 
-0.006115456 0.99959445 -0.027812252 
0.016474638 0.9980792 -0.05972138 
0.020311125 0.9984807 -0.05122416 
-0.0040970715 0.99920833 -0.039572928 
-0.033709522 0.9980885 -0.051798116 
-0.048600473 0.99671245 -0.06482668 
-0.06544097 0.99647945 -0.05240346 
-0.08933153 0.99546033 -0.03284278 
-0.110472605 0.993284 -0.034391943 
-0.12350714 0.99158984 -0.038671877 
-0.13080402 0.9909182 -0.03116671 
-0.13114148 0.9911291 -0.021568554 
-0.12521207 0.99197185 -0.017714435 
0.10094626 0.9936802 0.049088344 
0.069924966 0.9966738 0.041854184 
0.029889733 0.99941474 0.016639533 
0.0038803425 0.99944735 -0.033013627 
-3.5979632e-05 0.99629 -0.08605887 
0.017893264 0.99378914 -0.10983185 
0.049158167 0.99560845 -0.079670034 
0.06517648 0.9975387 -0.025857048 
0.06724321 0.99757236 0.01810182 
0.04237913 0.9978526 0.049942728 
-0.004081277 0.99883425 0.048099656 
-0.031413514 0.9991173 0.027892005 
-0.03619629 0.99913967 0.020242907 
-0.04258527 0.99884045 0.022458067 
-0.0574988 0.9982795 0.011490949 
-0.051423687 0.9985826 -0.013727029 
-0.017502237 0.9997024 -0.016994124 
0.009380649 0.9999513 0.0030920503 
0.013656907 0.99990666 0.0005002525 
0.00752509 0.9992972 -0.036722675 
0.0040220926 0.99820507 -0.05975507 
0.0006082477 0.99903125 -0.04400394 
-0.015147219 0.99952453 -0.026858144 
-0.0266005 0.99900985 -0.035663553 
-0.023496034 0.9985572 -0.04828643 
-0.029997312 0.99900585 -0.032977287 
-0.052690376 0.9984606 -0.017328667 
-0.07671292 0.9965523 -0.031604115 
-0.08965156 0.994786 -0.0486161 
-0.097016476 0.9942521 -0.04528589 
-0.09713647 0.99471235 -0.033344604 
-0.09159492 0.9954406 -0.026614 
0.2616098 0.95952946 0.10422842 
0.19697805 0.976877 0.08313383 
0.10946741 0.99289846 0.046580076 
0.046213817 0.9989285 0.002531225 
0.0067534447 0.9991086 -0.04167088 
-0.0035091538 0.99808514 -0.0617553 
0.008174315 0.9991267 -0.04097678 
0.020063175 0.9997783 -0.0064076157 
0.021695513 0.99947697 0.023979818 
0.0037654166 0.99909425 0.04238548 
-0.014865326 0.9992436 0.035933092 
-0.018668925 0.9992722 0.033263694 
-0.030766264 0.99841744 0.047075436 
-0.05663522 0.99722546 0.04830942 
-0.07551961 0.99697393 0.018433694 
-0.061426297 0.99778867 -0.025390835 
-0.017886098 0.9990453 -0.0398587 
0.0170148 0.999614 -0.021963634 
0.016031822 0.9997568 -0.015143911 
-0.006929771 0.9994655 -0.031947196 
-0.015052415 0.9989644 -0.04293712 
-0.0065203975 0.9993586 -0.035213348 
-0.004110164 0.99969286 -0.024441224 
0.00037256692 0.99953413 -0.030518414 
0.008212449 0.9990565 -0.042644847 
0.0018341752 0.99936676 -0.03553519 
-0.022023443 0.99918836 -0.033731207 
-0.04672693 0.9972538 -0.05745992 
-0.06137442 0.9949304 -0.0796673 
-0.072599195 0.99444306 -0.07623967 
-0.07546948 0.9952864 -0.06090559 
-0.07141826 0.9961845 -0.050157756 
0.63609135 0.7707252 -0.0370219 
0.47539872 0.8776772 -0.0606537 
0.26360297 0.9623835 -0.06581523 
0.1312659 0.98980355 -0.05530133 
0.04384841 0.99802727 -0.0449339 
-0.0067847674 0.9993574 -0.03519777 
-0.014911687 0.9997305 -0.017789962 
-0.0039276425 0.9999893 0.0024839924 
0.00036592537 0.999818 0.01907246 
-0.0035752456 0.9995284 0.030498689 
-0.004749966 0.99939346 0.034498375 
-0.008030555 0.9988028 0.048256617 
-0.03391277 0.99695444 0.07022643 
-0.06764069 0.9954829 0.066623375 
-0.08137058 0.9963381 0.026254363 
-0.0650341 0.9974999 -0.027652068 
-0.023801642 0.9982306 -0.054491002 
0.011592265 0.9990584 -0.04180916 
0.0091081 0.99973214 -0.021276701 
-0.011773441 0.99978995 -0.016778974 
-0.008962127 0.9996098 -0.02645331 
0.008038724 0.99931926 -0.036005195 
0.015317873 0.9993461 -0.032754313 
0.021490538 0.9991206 -0.03600412 
0.02629444 0.9982685 -0.052618902 
0.017943494 0.9979081 -0.062109835 
-0.009440851 0.997247 -0.07354886 
-0.038542267 0.9944919 -0.097470686 
-0.058000382 0.9916804 -0.114918225 
-0.07115289 0.99190444 -0.105180256 
-0.073554225 0.9938837 -0.082369894 
-0.0691859 0.99548244 -0.06502463 
0.790863 -0.3371146 -0.51077354 
0.79644656 0.31860635 -0.513968 
0.44010812 0.81628966 -0.37413386 
0.21761407 0.94856536 -0.22993043 
0.095853135 0.9870605 -0.12854482 
0.022680648 0.99758285 -0.06568193 
0.002379363 0.9995192 -0.030916171 
0.0075822547 0.9999353 -0.0084747765 
0.010491256 0.9999218 0.0068173083 
0.012077551 0.999623 0.024658088 
0.010287148 0.99911904 0.040687453 
-0.0019800703 0.99821454 0.059698027 
-0.037714764 0.9959566 0.081535324 
-0.074884884 0.99453336 0.07277139 
-0.08421601 0.9961251 0.025346426 
-0.06865283 0.9970522 -0.034259982 
-0.031776324 0.99717116 -0.06811687 
0.0061116097 0.99843866 -0.05552468 
0.011678538 0.99972355 -0.02040988 
0.0012711653 0.9999991 0.00030995472 
0.007951582 0.99991274 -0.010549266 
0.019106222 0.9993194 -0.031555306 
0.023851097 0.9991497 -0.033630908 
0.030959211 0.99866885 -0.041256182 
0.033596933 0.99706626 -0.06877712 
0.019648034 0.995614 -0.091469996 
-0.01591757 0.9944366 -0.10412748 
-0.0491223 0.9919347 -0.11684458 
-0.06745006 0.99028444 -0.1216026 
-0.0738338 0.9920469 -0.10193909 
-0.070339754 0.9949388 -0.07175797 
-0.064309694 0.99669635 -0.049606986 
0.45716897 -0.8190361 -0.34666473 
0.70487577 -0.36883578 -0.6058964 
0.5232383 0.52671117 -0.66992325 
0.295513 0.8620045 -0.4118499 
0.16245264 0.962714 -0.21631216 
0.084551886 0.99126834 -0.10118375 
0.056835 0.99752235 -0.041460652 
0.045699768 0.9988953 -0.010944534 
0.033108555 0.99943274 0.0061759376 
0.023134755 0.99935293 0.027542302 
0.011258096 0.9989929 0.043434534 
-0.004974465 0.9982812 0.05839476 
-0.039667338 0.99620736 0.07744321 
-0.07273579 0.9952425 0.064821884 
-0.07716563 0.9968826 0.016447714 
-0.065228164 0.99711865 -0.038726624 
-0.034479894 0.99685436 -0.07136247 
0.0066144373 0.9981599 -0.060275998 
0.020961655 0.999569 -0.02055304 
0.016705343 0.99982196 0.0087689 
0.01935397 0.99981064 0.0020235272 
0.021221286 0.9996025 -0.018566124 
0.024899375 0.9993401 -0.026446499 
0.033340614 0.99837565 -0.046202373 
0.03247502 0.99619067 -0.08092923 
0.012695677 0.9946783 -0.10224462 
-0.024343893 0.9942925 -0.10387382 
-0.051793497 0.99344176 -0.101935424 
-0.06126675 0.99359506 -0.09494946 
-0.056372743 0.9958121 -0.07197455 
-0.04555751 0.9979511 -0.044924803 
-0.037600037 0.9989484 -0.026239024 
0.26780733 -0.83299863 -0.48414105 
0.43280864 -0.4241717 -0.7954591 
0.34768972 0.3889012 -0.8531517 
0.28229555 0.8035247 -0.52407783 
0.20131508 0.94726175 -0.24933426 
0.13174553 0.98669213 -0.09529839 
0.09634662 0.9950051 -0.026121994 
0.07018424 0.99753284 -0.0015463483 
0.043758076 0.9990169 0.007112416 
0.023566542 0.99950093 0.021037392 
0.0071464647 0.9994311 0.032962505 
-0.009552476 0.9987412 0.049242992 
-0.041358616 0.9968227 0.06807353 
-0.066437036 0.996358 0.05345093 
-0.06509409 0.99779826 0.012711447 
-0.057640016 0.9978971 -0.029650424 
-0.030954953 0.9975738 -0.06235737 
0.015334797 0.9979419 -0.06226481 
0.03777738 0.9989003 -0.027769972 
0.036044195 0.9993261 0.006941113 
0.02851517 0.99955064 0.009251707 
0.016716484 0.99982333 -0.008594061 
0.017156258 0.9994611 -0.027984282 
0.024565883 0.9979878 -0.05845485 
0.01962167 0.9960367 -0.08675202 
0.000958773 0.9955849 -0.0938608 
-0.024182638 0.99625754 -0.08298267 
-0.039756324 0.99667317 -0.071148664 
-0.043836847 0.99742204 -0.056813065 
-0.035622697 0.9986851 -0.03686762 
-0.023642443 0.9995225 -0.019893015 
-0.015895134 0.9998282 -0.009536558 
0.030016508 -0.38016367 -0.9244321 
0.12861839 0.2481133 -0.9601548 
0.15113682 0.72563195 -0.67127943 
0.1755742 0.91142595 -0.3721245 
0.15022583 0.9756788 -0.15963446 
0.11682828 0.9923739 -0.03930871 
0.09533153 0.99538165 0.011278832 
0.0684501 0.9974205 0.02161217 
0.034794368 0.9992347 0.017876616 
0.0072970833 0.9998188 0.017579924 
-0.012490853 0.9997504 0.018526115 
-0.027586792 0.99925965 0.026819156 
-0.04582132 0.9981892 0.038973115 
-0.052003633 0.9982137 0.029410653 
-0.044962134 0.99895847 0.007771729 
-0.04453973 0.99888355 -0.015744988 
-0.022646582 0.9988184 -0.043001916 
0.025566274 0.9983932 -0.050571542 
0.052243415 0.99829006 -0.02622269 
0.04969458 0.9987551 0.004349803 
0.03168658 0.99947244 0.0071297 
0.01179514 0.99983466 -0.013840154 
0.012659139 0.99897355 -0.043493874 
0.015330906 0.9969074 -0.07707673 
0.0012917023 0.9955906 -0.093796104 
-0.014348837 0.9962159 -0.08572169 
-0.023013437 0.9977496 -0.06297668 
-0.02777845 0.9987936 -0.04049297 
-0.030946692 0.9993543 -0.018256472 
-0.025719438 0.999668 -0.0015497697 
-0.017481856 0.99982506 0.006651822 
-0.01177842 0.99988276 0.009789284 
-0.171986 0.6233737 -0.7627753 
-0.038384467 0.7955329 -0.60469335 
0.05528246 0.9246803 -0.37671 
0.083172 0.97926015 -0.18474837 
0.06901546 0.996185 -0.05340753 
0.055208985 0.9982727 0.020089926 
0.04534305 0.9980603 0.04265923 
0.023329534 0.99916327 0.03359595 
-0.0069764773 0.9999161 0.010916102 
-0.025783926 0.99961644 -0.010113699 
-0.032666907 0.9992276 -0.021845989 
-0.031094776 0.9993789 -0.016583288 
-0.02747094 0.999619 0.0027158712 
-0.022248715 0.9997111 0.009100985 
-0.024525227 0.9996805 0.006114841 
-0.042393737 0.99910086 0.00046161542 
-0.030886 0.9993256 -0.019862786 
0.019752685 0.9991195 -0.037013248 
0.05428647 0.9981895 -0.025900738 
0.054781042 0.99849606 -0.0021942744 
0.03346031 0.99943376 -0.0035568464 
0.013455489 0.9994271 -0.03105601 
0.0141268065 0.9975796 -0.06808438 
0.0037214777 0.9951884 -0.09790937 
-0.026491664 0.99491554 -0.09716671 
-0.040896386 0.9967426 -0.06951003 
-0.032831624 0.9989002 -0.033476517 
-0.023571514 0.99972063 -0.0017881739 
-0.019819306 0.9995413 0.022899516 
-0.015993204 0.99932396 0.03310336 
-0.011992649 0.99935126 0.033959042 
-0.010445048 0.9994377 0.031864747 
-0.13375653 0.91916597 -0.3704633 
-0.03599795 0.95657355 -0.28926003 
0.019868879 0.98749685 -0.15638176 
0.0074764695 0.9987376 -0.04967264 
-0.017171634 0.99977213 0.01268236 
-0.02093287 0.99899614 0.03960468 
-0.015466716 0.99930876 0.033805907 
-0.022283262 0.99971735 0.008287876 
-0.03592709 0.99899805 -0.026685735 
-0.03612621 0.99792266 -0.05334106 
-0.02790253 0.9978616 -0.059108395 
-0.01423056 0.9991062 -0.03980192 
-0.0034077934 0.99997133 -0.0067570517 
-0.0026738488 0.99998087 0.005578895 
-0.021276593 0.99975866 0.0054828655 
-0.055580385 0.9984461 0.0040194597 
-0.046208765 0.99880224 -0.016090265 
0.013583399 0.999259 -0.036013726 
0.05437579 0.9981926 -0.025588343 
0.052241024 0.9986156 -0.006149306 
0.026564645 0.99947524 -0.018537542 
0.009429116 0.99844784 -0.054891136 
0.010353867 0.99589884 -0.08987991 
-0.013761437 0.99446124 -0.104199104 
-0.056439526 0.9950276 -0.082065 
-0.06384698 0.9972307 -0.038138814 
-0.035809897 0.999349 0.004387891 
-0.01007578 0.9994334 0.032117542 
-0.003953711 0.9991509 0.041013062 
-0.009683005 0.9993156 0.03570233 
-0.0148584265 0.99955577 0.025835799 
-0.023012957 0.99950725 0.02134884 
-0.042664334 0.9766883 -0.21037975 
0.0024386523 0.9895974 -0.1438443 
0.0030390616 0.9984137 -0.05622168 
-0.03584345 0.9993518 -0.0033591774 
-0.05861187 0.99812 0.017923288 
-0.0506213 0.99848473 0.021583484 
-0.034073185 0.9994059 0.005197807 
-0.03187544 0.9991538 -0.025993852 
-0.0349977 0.99729615 -0.06461937 
-0.025513789 0.9959719 -0.08596028 
-0.011995793 0.99712336 -0.07484147 
0.001549904 0.9993826 -0.03510303 
0.0069247643 0.99995947 0.0057648593 
-0.0006577601 0.9999338 0.011495795 
-0.029857025 0.9995532 0.00140135 
-0.06750884 0.99769616 -0.0067023817 
-0.048287123 0.9984962 -0.025958233 
0.02004924 0.99906695 -0.038252257 
0.055404097 0.99817985 -0.023820067 
0.042137943 0.99902815 -0.012926343 
0.01446255 0.99924386 -0.036091875 
0.0029289215 0.997535 -0.07011076 
0.0019976213 0.9957068 -0.092542194 
-0.031670455 0.9950193 -0.09451759 
-0.07432821 0.9951098 -0.06505228 
-0.0663947 0.9975985 -0.019720977 
-0.019668559 0.9997233 0.012903611 
0.0073906924 0.999902 0.01189212 
-0.014608389 0.9998281 -0.011423165 
-0.053009503 0.99806035 -0.032643497 
-0.085368544 0.99493253 -0.053118076 
-0.11289507 0.99243206 -0.04830395 
0.053605746 0.9916869 -0.11697676 
0.054109808 0.9961888 -0.06841015 
0.019793985 0.99957645 -0.021336043 
-0.025578756 0.99966824 -0.003043611 
-0.04361308 0.9990483 0.0006743788 
-0.033534747 0.99943084 -0.0036789363 
-0.016601104 0.9995728 -0.024057293 
-0.010987239 0.9982132 -0.05873608 
-0.00648454 0.995479 -0.09476109 
0.006660214 0.9950216 -0.09943727 
0.014294814 0.9979569 -0.062273134 
0.012144586 0.9999149 -0.0047748294 
0.00073052355 0.9995022 0.031541288 
-0.01828962 0.9996279 0.020242894 
-0.052876543 0.99856514 -0.008471562 
-0.08203404 0.99613494 -0.03139603 
-0.045777567 0.9977123 -0.049745243 
0.026508793 0.9984732 -0.04846153 
0.051998366 0.99827045 -0.027430763 
0.035166867 0.9991795 -0.02009203 
0.015696488 0.99905956 -0.04041828 
0.008026533 0.9981437 -0.060372718 
-0.0009931332 0.99749637 -0.07071171 
-0.040905662 0.9966937 -0.070203446 
-0.07364715 0.9961562 -0.047422 
-0.043894906 0.9987647 -0.02328784 
0.012737527 0.9992419 -0.03679015 
0.005415308 0.995375 -0.09591394 
-0.087231204 0.985719 -0.14404441 
-0.18069746 0.9697335 -0.16421205 
-0.269846 0.94374955 -0.19110236 
-0.32730287 0.9300368 -0.1670463 
0.08006726 0.99669975 -0.013371284 
0.06379352 0.9979597 0.0026379013 
0.025697121 0.9996441 0.007168074 
-0.010309357 0.9999394 -0.003880715 
-0.020272385 0.99963975 -0.01759319 
-0.0062814252 0.99942553 -0.033303898 
0.015521109 0.9982561 -0.05695545 
0.029607851 0.99589133 -0.08557978 
0.04047136 0.9939122 -0.10247229 
0.046842437 0.99588096 -0.07763339 
0.032319162 0.9993333 -0.016985374 
0.0035567738 0.999202 0.03978318 
-0.024298064 0.9982722 0.053502053 
-0.049320783 0.9986596 0.015700417 
-0.08153937 0.9959974 -0.03661408 
-0.09608625 0.9929039 -0.07006731 
-0.04675447 0.9962573 -0.07270053 
0.022600582 0.9985476 -0.04890648 
0.041495863 0.9989011 -0.021787722 
0.03077838 0.99940056 -0.015851947 
0.024360798 0.9992849 -0.028916841 
0.020587904 0.99917483 -0.03501318 
0.0071419096 0.9993449 -0.03548144 
-0.030932203 0.9989092 -0.034982994 
-0.048897326 0.99839073 -0.028725231 
-0.005567148 0.9987349 -0.04997627 
0.029474484 0.99030167 -0.13577186 
-0.054610305 0.9675709 -0.2466259 
-0.22891292 0.93174344 -0.28187445 
-0.37080875 0.87960297 -0.2979926 
-0.5388461 0.7554129 -0.37282208 
-0.6526449 0.6475755 -0.39331996 
0.022713905 0.9972998 0.06983745 
0.010196498 0.9981924 0.05922885 
-0.011058543 0.9993986 0.03286836 
-0.023758883 0.99971634 -0.0016990314 
-0.012825873 0.99941796 -0.03161069 
0.016824747 0.9984909 -0.052275874 
0.048515655 0.9966295 -0.06615024 
0.066453196 0.99495894 -0.07510478 
0.071999975 0.9951751 -0.06665282 
0.057137918 0.9981048 -0.022852862 
0.014722191 0.9993798 0.031992115 
-0.028583962 0.99784774 0.05901548 
-0.051363032 0.9978626 0.040400095 
-0.06324864 0.9978719 -0.015853833 
-0.08305908 0.9940585 -0.07034866 
-0.093020305 0.99191517 -0.08632269 
-0.054474913 0.9966051 -0.061731666 
-0.0007125476 0.9996943 -0.024714189 
0.0149423 0.9998869 -0.0017623153 
0.01725132 0.99985117 0.0005040342 
0.026262479 0.99962944 -0.0071654753 
0.027591487 0.9995894 -0.0077432124 
0.016932657 0.99983484 -0.0066108513 
-0.009296542 0.99991894 -0.0087051075 
-0.01292673 0.99973404 -0.019101053 
0.023918023 0.9964047 -0.08127523 
0.007832688 0.97688377 -0.21362767 
-0.15005656 0.93336076 -0.32606882 
-0.35053343 0.87694615 -0.3287734 
-0.49186787 0.77637005 -0.3941013 
-0.6696964 0.3767773 -0.6399576 
-0.6676604 -0.23129143 -0.70762557 
-0.045979455 0.9968447 0.06470323 
-0.04679717 0.997777 0.047445852 
-0.044899628 0.9988383 0.017499352 
-0.030660795 0.99942935 -0.014176734 
0.0009078011 0.99944824 -0.033202466 
0.038103215 0.9986789 -0.03447563 
0.064725064 0.99754965 -0.026559854 
0.07233872 0.99719906 -0.019003676 
0.06227791 0.99805415 -0.0030584398 
0.0267414 0.9993242 0.025222374 
-0.023989903 0.998877 0.040856283 
-0.05367579 0.99805707 0.03163936 
-0.052232776 0.9986286 0.003537948 
-0.046027537 0.9981621 -0.039420016 
-0.06427691 0.99519706 -0.07383277 
-0.09310563 0.9930328 -0.07223007 
-0.07784753 0.9962367 -0.038108267 
-0.030754674 0.9995269 -0.00031242744 
-0.005183509 0.999781 0.020275021 
0.009902164 0.9995801 0.027235528 
0.02158036 0.99947333 0.024239328 
0.02022887 0.9996942 0.014220887 
0.01851216 0.999826 0.0023111976 
0.011736773 0.9999165 -0.0054132803 
0.017846113 0.99962246 -0.020894455 
0.03919788 0.9948845 -0.093104795 
-0.012353449 0.9743927 -0.22451389 
-0.18119273 0.93234587 -0.31289035 
-0.33082047 0.8867946 -0.32272765 
-0.39753544 0.7719821 -0.4959932 
-0.41580006 0.07571848 -0.90629864 
-0.23769389 -0.7309193 -0.63973325 
-0.027512211 0.9996215 -5.4046155e-05 
-0.020462729 0.999769 -0.0065910527 
-0.009205548 0.99985 -0.014673191 
0.00799097 0.9998152 -0.01748206 
0.030538613 0.99951106 -0.006722309 
0.049180698 0.99867374 0.015230529 
0.057961788 0.997736 0.034109153 
0.05403152 0.9976988 0.040961076 
0.034936965 0.9984944 0.04229113 
-0.0018661786 0.9992671 0.038235776 
-0.036629643 0.99910796 0.021016927 
-0.04471928 0.9989908 0.0041975686 
-0.033281866 0.99942136 -0.007015441 
-0.028374527 0.999153 -0.029803708 
-0.055638473 0.9968192 -0.057060163 
-0.09729453 0.9934513 -0.059903458 
-0.09169765 0.9954362 -0.026427018 
-0.046713423 0.998774 0.016381733 
-0.01867783 0.99896324 0.04151792 
-0.0059059463 0.9985579 0.053360306 
0.0018414587 0.9989488 0.045803674 
0.0076136636 0.9997897 0.01904053 
0.025333192 0.99966997 -0.004276403 
0.03761205 0.9992134 -0.012572604 
0.047959343 0.99852437 -0.025475157 
0.056825545 0.9942043 -0.09126266 
-0.005900816 0.97958046 -0.20096615 
-0.14017794 0.954907 -0.26173034 
-0.19449553 0.9344666 -0.29823422 
-0.13359104 0.82885516 -0.5432796 
0.02698347 0.14077733 -0.98967355 
0.120910056 -0.6628324 -0.73894125 
0.04930117 0.9986571 -0.015918102 
0.05599828 0.99837613 -0.010458674 
0.058457308 0.99828774 0.0021296227 
0.05553894 0.9982394 0.02082171 
0.050694194 0.9976316 0.046489913 
0.045078326 0.99633217 0.07273348 
0.04029251 0.9953075 0.087974004 
0.030296275 0.99598897 0.08419084 
0.010409783 0.9977675 0.065968245 
-0.016663449 0.99908096 0.0394905 
-0.032736037 0.99938065 0.012912034 
-0.031686176 0.9994877 0.0045029656 
-0.023703473 0.9997081 0.004691325 
-0.01895054 0.99973905 -0.012755137 
-0.040422674 0.9981897 -0.0445348 
-0.08083495 0.99529433 -0.05343255 
-0.090476796 0.99580926 -0.013336197 
-0.06622522 0.99714273 0.03634034 
-0.04787488 0.9972912 0.055842567 
-0.03529404 0.99779135 0.056274988 
-0.01459584 0.9992245 0.03657336 
0.013845701 0.9998948 0.0043420247 
0.046255894 0.99885243 -0.012418499 
0.061583385 0.9980035 -0.014022808 
0.06842871 0.99737966 -0.02348399 
0.070034415 0.9946644 -0.07574899 
0.010058043 0.9873368 -0.1583189 
-0.088820346 0.9775042 -0.19130205 
-0.08065122 0.97454846 -0.20916677 
0.038647376 0.9214587 -0.38654912 
0.23009239 0.62649834 -0.7446861 
0.38322648 0.058886755 -0.9217754 
0.09183458 0.99544054 0.025780581 
0.09602831 0.99480087 0.033910073 
0.08921768 0.9947538 0.05005238 
0.07077752 0.9950072 0.07036595 
0.048278924 0.9944408 0.09357788 
0.029600276 0.9929665 0.11463603 
0.015890513 0.9921954 0.123676665 
0.0006414014 0.9940271 0.10913225 
-0.018752258 0.99684495 0.07712658 
-0.035307873 0.99848574 0.0421876 
-0.037397057 0.99912876 0.018522859 
-0.031515535 0.9994015 0.014264048 
-0.0225355 0.9996348 0.014921039 
-0.008251784 0.9999658 -0.0006961707 
-0.012665657 0.9994019 -0.03217672 
-0.04863616 0.99784553 -0.044033382 
-0.080383815 0.99675333 -0.0046011987 
-0.084045894 0.99554265 0.042791795 
-0.07404142 0.99599326 0.050153468 
-0.05224048 0.9979235 0.03767921 
-0.01272943 0.9997831 0.01648405 
0.030872138 0.99951446 -0.004210643 
0.05954142 0.9982246 -0.0016164517 
0.0637492 0.9979229 0.009270394 
0.07039538 0.99751234 0.003694765 
0.0864856 0.99535954 -0.04218786 
0.050442778 0.99072856 -0.12614441 
-0.03229101 0.9857699 -0.1649695 
-0.008681797 0.9883104 -0.15220754 
0.13273448 0.9577001 -0.2553279 
0.29778588 0.82445467 -0.48124647 
0.43481693 0.5771477 -0.691256 
0.09166211 0.9948946 0.042224817 
0.096090265 0.9942749 0.046734776 
0.088591665 0.9943917 0.05776448 
0.06890883 0.99489194 0.07376731 
0.04458971 0.9946979 0.09267083 
0.024001747 0.99344915 0.111726 
0.005356168 0.99268544 0.12061094 
-0.012358681 0.9943908 0.1050444 
-0.030314824 0.99682343 0.07364901 
-0.039918672 0.9982017 0.044721507 
-0.036351603 0.998816 0.03233 
-0.030117862 0.999032 0.032063846 
-0.019187998 0.9992392 0.03395326 
0.0029942389 0.9997403 0.022592917 
0.013591772 0.9998558 -0.010183646 
-0.01827393 0.9992004 -0.03556237 
-0.067005165 0.9976687 -0.012948074 
-0.088305876 0.99568087 0.028666101 
-0.07721263 0.99640423 0.034884524 
-0.04321728 0.9987759 0.024065346 
0.0019829357 0.999894 0.014421687 
0.036689233 0.9993017 0.007089868 
0.04652082 0.99871534 0.020090997 
0.035396036 0.9986054 0.039173733 
0.038007464 0.99837446 0.042472113 
0.075163856 0.99702287 0.017196162 
0.10235943 0.99333745 -0.052945223 
0.077811815 0.98991495 -0.11838025 
0.089838885 0.9901437 -0.107445344 
0.20715772 0.97053826 -0.12304983 
0.33902133 0.9173593 -0.208606 
0.44382444 0.8464263 -0.2942489 
0.07884749 0.9968842 -0.002255743 
0.08241285 0.9965981 0.00056790677 
0.075377874 0.9971097 0.009515804 
0.058359202 0.99800986 0.023887318 
0.038805734 0.9984587 0.039677512 
0.023357952 0.9980749 0.057455298 
0.009535248 0.9976003 0.06857672 
0.0006367248 0.99821305 0.05975137 
-0.006493384 0.9992239 0.03885347 
-0.0063707195 0.9996431 0.025948068 
-0.00025627913 0.9993864 0.035025194 
0.0028774233 0.9986746 0.051390134 
0.008584403 0.99781567 0.06550005 
0.021691335 0.9976649 0.06476235 
0.029135011 0.99909043 0.03113634 
-0.001346236 0.999898 -0.0142182605 
-0.05747546 0.9981308 -0.020772021 
-0.08583469 0.99628365 0.0071708765 
-0.068983585 0.9974098 0.02037068 
-0.028178534 0.99933785 0.023020944 
0.011372554 0.99949527 0.029665433 
0.027765535 0.9991223 0.03136584 
0.017023847 0.9991603 0.03726773 
-0.003228663 0.9989052 0.04666857 
-0.006318592 0.9986508 0.05154228 
0.026685135 0.9983584 0.050679818 