# OOMMF OVF 2.0
# Segment count: 1
# Begin: Segment
# Begin: Header
# Title: m
# meshtype: rectangular
# meshunit: m
# xmin: 0
# ymin: 0
# zmin: 0
# xmax: 1.6e-07
# ymax: 1.6e-07
# zmax: 5e-09
# valuedim: 3
# valuelabels: m_x m_y m_z
# valueunits: 1 1 1
# Desc: Total simulation time:  5.7355250999837305e-11  s
# xbase: 2.5e-09
# ybase: 2.5e-09
# zbase: 2.5e-09
# xnodes: 32
# ynodes: 32
# znodes: 1
# xstepsize: 5e-09
# ystepsize: 5e-09
# zstepsize: 5e-09
# End: Header
# Begin: Data Text
-0.36208162 -0.92892194 -0.077466525 
-0.6018827 -0.7656847 -0.22685738 
-0.68266827 0.6747317 -0.2805376 
-0.2861958 0.95403427 -0.08894147 
-0.13171849 0.991286 -0.0015738682 
-0.07717874 0.99662584 0.027937273 
-0.045330457 0.9985211 0.030012773 
-0.047513865 0.9984585 0.028690597 
-0.093215026 0.99504393 0.03462066 
-0.15513007 0.9874054 0.031069301 
-0.19430159 0.9809345 0.0038010413 
-0.18535762 0.98212045 -0.03289588 
-0.13524196 0.9892486 -0.055649918 
-0.08666916 0.99469763 -0.055362385 
-0.06349788 0.9964846 -0.05465007 
-0.059066195 0.99659294 -0.0575661 
-0.0683087 0.9964627 -0.04895041 
-0.07514182 0.99663085 -0.03287702 
-0.06608427 0.9977831 -0.007870198 
-0.036261983 0.99884725 0.03145335 
-0.0044761156 0.9967928 0.07990063 
0.013236892 0.9933672 0.11422124 
0.029889988 0.99088347 0.13136451 
0.042111777 0.985545 0.16409694 
0.04185301 0.9785366 0.2017782 
0.03383559 0.9779703 0.20598403 
0.027029892 0.98441356 0.17377979 
0.045880426 0.988414 0.14468181 
0.109515086 0.9830983 0.14671087 
0.17582083 0.9712233 0.16066264 
0.18408932 0.9691939 0.16362895 
0.14822423 0.97597146 0.15971644 
-0.77018595 -0.63775647 0.008963972 
-0.9755267 -0.1574243 -0.15351054 
-0.5369932 0.83784735 -0.09823571 
-0.18131101 0.9833881 -0.008606946 
-0.056896996 0.9975318 0.04114977 
-0.02478259 0.99745953 0.066785894 
-0.013238802 0.9971839 0.07381792 
-0.0246422 0.99719596 0.07066214 
-0.07021038 0.9956442 0.06134478 
-0.13178088 0.9904435 0.04068769 
-0.1704187 0.9853353 0.008479403 
-0.16637908 0.9857359 -0.025352092 
-0.12930161 0.99024016 -0.052015472 
-0.08825985 0.99428827 -0.060009122 
-0.06492529 0.9962865 -0.056550954 
-0.055737745 0.997245 -0.048946593 
-0.053072784 0.9979888 -0.034664076 
-0.049691513 0.9986307 -0.01635803 
-0.039372064 0.9992103 0.0053632795 
-0.01885695 0.9992925 0.03254116 
-0.00067127857 0.99785435 0.06547039 
0.0055905376 0.99618083 0.087135494 
0.012656182 0.9952176 0.09685976 
0.021224307 0.99227226 0.12225168 
0.022387093 0.987614 0.15529794 
0.016941635 0.9863211 0.16396242 
0.013371253 0.9894593 0.14419256 
0.031692706 0.99173814 0.124302134 
0.084350005 0.9887369 0.12362968 
0.13903676 0.9816355 0.1306166 
0.15133807 0.9795038 0.13292538 
0.13210861 0.9822572 0.13310991 
-0.6478867 0.72700894 0.22737823 
-0.53022236 0.843367 0.08715811 
-0.22367747 0.9737936 0.041164175 
-0.03725027 0.9980692 0.04970188 
0.028657591 0.9969878 0.07206997 
0.028777929 0.99532735 0.09217009 
0.018981554 0.9948381 0.09968447 
0.0075695408 0.9950489 0.09909903 
-0.028678516 0.99596334 0.08505691 
-0.08639896 0.994679 0.056116592 
-0.13019994 0.9911737 0.024956359 
-0.14176038 0.98988605 -0.005452903 
-0.12838814 0.99102235 -0.03729917 
-0.102508426 0.99281347 -0.061752893 
-0.07307459 0.99489176 -0.06964602 
-0.04503327 0.99750364 -0.054392252 
-0.02700207 0.99933773 -0.02439573 
-0.020676827 0.9997707 0.005580608 
-0.015252576 0.9994911 0.028018724 
-0.0062377285 0.99890983 0.046262812 
-0.0009905497 0.99786127 0.06536151 
-0.0037695856 0.99740005 0.07196626 
-0.0020254236 0.99757195 0.06961488 
0.010386923 0.996663 0.08096374 
0.019968247 0.9945387 0.10244056 
0.01907005 0.9935414 0.111856595 
0.015389893 0.99444294 0.104146466 
0.027514653 0.99522305 0.093669906 
0.06344823 0.9941079 0.08788548 
0.10282848 0.9909686 0.08606839 
0.11972263 0.988743 0.08974277 
0.11710938 0.98838973 0.09680524 
-0.18965085 0.9801275 0.058160078 
-0.12799999 0.9912256 0.032983623 
-0.016637396 0.9992097 0.036100715 
0.057656232 0.99689585 0.053613912 
0.075807884 0.99405456 0.078158855 
0.048705038 0.99436074 0.09420455 
0.023309667 0.99537295 0.09321711 
0.014845627 0.99536973 0.09496711 
-0.010611062 0.996132 0.08722648 
-0.05282845 0.996991 0.0567302 
-0.08444181 0.9961017 0.02551793 
-0.09887528 0.99509406 -0.0033929083 
-0.10327714 0.994063 -0.034244005 
-0.09517571 0.99344665 -0.06328769 
-0.06780479 0.99462366 -0.07827044 
-0.031021107 0.9976655 -0.060837828 
-0.0051738354 0.9998209 -0.018206036 
-0.000851392 0.99966323 0.025939235 
-0.005562435 0.99852914 0.053933643 
-0.008836661 0.9975914 0.06879991 
-0.011458566 0.99701524 0.07635023 
-0.016211517 0.99756926 0.06777014 
-0.010775345 0.9984776 0.054096516 
0.012951586 0.9985126 0.052961834 
0.033597916 0.99740934 0.06360684 
0.03651664 0.99679774 0.07113911 
0.029628335 0.9969515 0.072179064 
0.03238397 0.9969322 0.071256906 
0.050110962 0.9968242 0.061890744 
0.0751047 0.9958328 0.051732846 
0.09781478 0.9936579 0.05546397 
0.11120803 0.9914755 0.06789093 
0.0075767357 0.9995208 -0.030013679 
0.03260365 0.9993653 -0.014353451 
0.063157566 0.99780345 0.019986082 
0.074121766 0.99600357 0.049829617 
0.06477363 0.9953743 0.0709541 
0.03480312 0.99651855 0.07576059 
0.0137244575 0.99799407 0.061801694 
0.009618404 0.9979708 0.06294331 
-0.013201122 0.9977149 0.06626294 
-0.04227489 0.99821657 0.042149283 
-0.05267437 0.9985443 0.011607858 
-0.054339178 0.9983998 -0.01565711 
-0.05905951 0.9974495 -0.04008212 
-0.057584293 0.9964391 -0.06159006 
-0.040619962 0.99654686 -0.07241837 
-0.01627044 0.99822164 -0.057349198 
0.006465386 0.99983263 -0.017118843 
0.011541095 0.99948627 0.029900106 
-0.0007141326 0.9980611 0.062237762 
-0.015271366 0.99696493 0.076339394 
-0.027430667 0.9969173 0.07350938 
-0.037270103 0.9977353 0.05599385 
-0.029279696 0.9987894 0.03952748 
0.0027524605 0.9993784 0.035148147 
0.03427784 0.9984339 0.044213068 
0.04318044 0.9975264 0.05546736 
0.03406864 0.997029 0.069083735 
0.029493215 0.99643505 0.079040155 
0.03519831 0.9971225 0.067141026 
0.05229204 0.9974864 0.047816895 
0.07930669 0.99572355 0.04738267 
0.103220254 0.9927944 0.060868505 
0.06705555 0.99771315 -0.008495636 
0.07484515 0.99716246 0.008086955 
0.069441274 0.9966635 0.04289271 
0.038052864 0.99699736 0.06744137 
0.007861474 0.99789715 0.06433971 
-0.0068346914 0.9990308 0.043483708 
-0.00084587454 0.9998484 0.017391386 
0.008188768 0.9998404 0.015882395 
-0.0141264135 0.9996547 0.022157878 
-0.035506107 0.9993516 0.00597925 
-0.03154716 0.9994392 -0.011229801 
-0.024399936 0.9994672 -0.021682037 
-0.021832474 0.9992288 -0.03263815 
-0.015304638 0.99882305 -0.046025906 
-0.006618582 0.99851483 -0.054078143 
0.0057566585 0.998875 -0.04707088 
0.027028715 0.9994809 -0.017535618 
0.029709632 0.9993035 0.022580964 
0.0048971064 0.99884045 0.047894582 
-0.02570109 0.9982691 0.052900407 
-0.055221163 0.997521 0.043619573 
-0.07445663 0.996726 0.03152219 
-0.06492333 0.99756396 0.025516847 
-0.027567914 0.9990764 0.032958858 
0.015029892 0.9985194 0.052280035 
0.032752704 0.9969775 0.07045002 
0.028835727 0.9951722 0.09381266 
0.024732979 0.9936139 0.11008961 
0.025782837 0.99490535 0.097461306 
0.038528707 0.9967994 0.07004705 
0.06538751 0.99591744 0.06223353 
0.0930217 0.993014 0.07259574 
-0.020155132 0.9929669 0.116664566 
0.0005986898 0.99478686 0.10197482 
0.01176492 0.9942467 0.10646715 
-0.021955326 0.9926512 0.11900309 
-0.06650273 0.9939038 0.087935545 
-0.06820252 0.99721676 0.030119546 
-0.031185817 0.99944717 -0.011529036 
-0.0026950804 0.9998194 -0.018813374 
-0.0152976485 0.9997259 -0.017728472 
-0.029026495 0.9992244 -0.026611054 
-0.02539811 0.99929386 -0.02769082 
-0.022751285 0.99943423 -0.02477313 
-0.010917085 0.9995465 -0.028064486 
0.010528432 0.9994939 -0.030019427 
0.020048266 0.9994647 -0.025854636 
0.029950332 0.9992637 -0.023982452 
0.051900923 0.9985301 -0.0156218335 
0.049297143 0.99878407 0.00054138066 
0.011254362 0.9999071 0.007701087 
-0.039234504 0.9991889 0.00907138 
-0.086214244 0.9961717 0.014457996 
-0.10627312 0.9940492 0.023924964 
-0.09091758 0.99526364 0.03441318 
-0.049146883 0.9973188 0.054221127 
0.00014400584 0.99715936 0.075321406 
0.024213122 0.9956308 0.090183645 
0.028853998 0.9934166 0.11086432 
0.028739318 0.99165905 0.12564418 
0.030650692 0.99287343 0.11516519 
0.041171037 0.995397 0.086543925 
0.065634094 0.9949845 0.07548571 
0.092496686 0.99224997 0.08297229 
-0.21787646 0.92523813 0.31058714 
-0.15107736 0.96097946 0.23172018 
-0.07870684 0.9817532 0.17310728 
-0.0719522 0.98362184 0.16526066 
-0.11793389 0.98607755 0.11722984 
-0.11693355 0.99289167 0.022200301 
-0.054836392 0.9977827 -0.037719883 
-0.0018558602 0.99912417 -0.04180327 
0.0037610119 0.99956363 -0.029299797 
-0.00938058 0.9997257 -0.021464942 
-0.024809433 0.9995181 -0.018655661 
-0.03708382 0.9990111 -0.024528211 
-0.0204557 0.9993578 -0.029420694 
0.01284312 0.99973625 -0.019044204 
0.029820751 0.9995462 -0.004268625 
0.043413006 0.9989942 -0.011228205 
0.059928868 0.9977565 -0.029842736 
0.04699109 0.99818087 -0.037772432 
-0.0005480587 0.99945885 -0.032890376 
-0.05866362 0.9982346 -0.0092860805 
-0.09725982 0.9949246 0.025799073 
-0.09573994 0.99415547 0.04988769 
-0.06850915 0.99563 0.063461155 
-0.02828915 0.9965949 0.07744902 
0.010045688 0.9965459 0.082433775 
0.027642667 0.99617696 0.08286966 
0.03391284 0.99541485 0.08943825 
0.035052665 0.9944017 0.099682294 
0.03796007 0.9946076 0.09651307 
0.04674856 0.9959697 0.07654379 
0.071343526 0.9952641 0.06602619 
0.0976208 0.9927786 0.06972064 
-0.49420527 0.6470982 0.5805387 
-0.35580763 0.83667094 0.41639256 
-0.19261152 0.9485475 0.2513137 
-0.122966714 0.973844 0.1910684 
-0.14496753 0.9814913 0.12513675 
-0.1353206 0.9906363 0.018115992 
-0.06576931 0.99694365 -0.042164773 
-0.004444919 0.99917173 -0.040450644 
0.015513519 0.9997429 -0.01653446 
0.0029937674 0.9999942 0.0016418869 
-0.02720857 0.9996224 -0.0038478451 
-0.048145097 0.99852616 -0.02505365 
-0.030449096 0.9989879 -0.033105925 
0.006258724 0.9997721 -0.020412754 
0.02806286 0.9995247 -0.012766907 
0.039011374 0.9986002 -0.03572017 
0.039862286 0.99703467 -0.06582509 
0.014560029 0.99785525 -0.06382038 
-0.030995034 0.9990588 -0.030347986 
-0.06778419 0.99749935 0.020013304 
-0.06748199 0.9957359 0.062898666 
-0.037188955 0.9962801 0.0777373 
-0.0066630025 0.99680644 0.079578325 
0.015135081 0.99703676 0.07542362 
0.02453538 0.99777406 0.06200822 
0.026308527 0.9984257 0.04953813 
0.029172622 0.9986331 0.04337156 
0.032789014 0.9981603 0.050999116 
0.034580715 0.9978115 0.05636047 
0.039212923 0.99806184 0.048322055 
0.06320119 0.9972849 0.03779547 
0.0888005 0.99537724 0.03658911 
-0.59448487 0.09113882 0.7989253 
-0.44352305 0.6183978 0.6487462 
-0.21032026 0.91203266 0.35208237 
-0.105680406 0.96741533 0.23008554 
-0.1266005 0.98047787 0.15045129 
-0.1300702 0.99060994 0.042116802 
-0.07716417 0.99681264 -0.020257456 
-0.021990767 0.99947405 -0.023835748 
0.0050786943 0.999985 0.0020546764 
-0.005199709 0.9997994 0.019342093 
-0.037462607 0.9992979 0.00055325776 
-0.054593936 0.99803084 -0.030887837 
-0.032451343 0.99854165 -0.04314606 
0.008834808 0.9990855 -0.041834842 
0.03357177 0.9981984 -0.049729396 
0.028319966 0.99676424 -0.0752271 
0.002901039 0.9963714 -0.08506267 
-0.027224883 0.9983492 -0.050574634 
-0.049773067 0.9987566 0.00282278 
-0.045975342 0.99765855 0.05063339 
-0.013883477 0.99684346 0.078168906 
0.016262256 0.9965748 0.08108202 
0.027045688 0.9966773 0.076831 
0.02107011 0.9977358 0.06387111 
0.0073428773 0.99905765 0.04277759 
0.0042073736 0.9997152 0.023491623 
0.013525965 0.99982274 0.013096437 
0.026261128 0.99942344 0.021520093 
0.025877528 0.9991346 0.03256342 
0.022885067 0.9992317 0.03181592 
0.03838425 0.99904674 0.020789735 
0.05762702 0.9981976 0.016753208 
-0.3614045 -0.41774228 0.83359355 
-0.295561 0.3509509 0.8885253 
-0.10199765 0.87488806 0.47346318 
-0.027231595 0.95735353 0.28763327 
-0.08252392 0.9759928 0.20156403 
-0.12598005 0.9880177 0.089164026 
-0.10008446 0.99492717 0.010152311 
-0.05325199 0.9985304 -0.010072962 
-0.025524009 0.99966335 0.0046704626 
-0.028710978 0.99954623 0.009111884 
-0.046521362 0.99877447 -0.01689163 
-0.049040005 0.9979246 -0.041732557 
-0.020711236 0.9984981 -0.050722227 
0.021523219 0.99776644 -0.06323723 
0.038731564 0.9957142 -0.083983295 
0.011201351 0.9951884 -0.09733848 
-0.026650155 0.9969002 -0.07402544 
-0.041302428 0.9989526 -0.019691903 
-0.034704395 0.9990755 0.0253756 
-0.008140251 0.9984629 0.0548231 
0.016792163 0.99752045 0.06834446 
0.016627306 0.9973642 0.07062636 
0.004417246 0.9972319 0.07422254 
-0.013105415 0.99772435 0.06613951 
-0.028215028 0.9985863 0.045049448 
-0.024028879 0.9994493 0.022886917 
-0.0042145867 0.99988073 0.014862542 
0.019027898 0.9995141 0.024689341 
0.019727768 0.9991715 0.035598785 
0.009456253 0.99929416 0.03635817 
0.010944148 0.9995665 0.027335241 
0.020004563 0.9995292 0.023263209 
-0.052748572 -0.66939616 0.7410307 
-0.026926816 0.0056117885 0.9996216 
0.026870519 0.7760455 0.6301043 
0.008679271 0.92390114 0.3825328 
-0.08741465 0.9641786 0.25043604 
-0.14029467 0.98381567 0.11146423 
-0.11521708 0.9931567 0.019103298 
-0.07222666 0.9973304 -0.010743764 
-0.04743529 0.99881995 -0.010426384 
-0.0398428 0.99903804 -0.018318022 
-0.038068 0.99853456 -0.03846505 
-0.029163955 0.99851614 -0.045989 
-0.00013816248 0.9986649 -0.0516563 
0.03691826 0.99661696 -0.073428944 
0.038168065 0.9952442 -0.08962316 
-0.005428573 0.997094 -0.075987674 
-0.035989486 0.9988936 -0.030271044 
-0.027612602 0.9995121 0.014601674 
-0.003981699 0.99942076 0.033799585 
0.019140413 0.9989579 0.0414362 
0.015105415 0.9989921 0.042268816 
-0.012764894 0.99864185 0.050513018 
-0.032158416 0.9970709 0.06939377 
-0.04764976 0.99650955 0.06854364 
-0.05674215 0.9973936 0.04456826 
-0.048290316 0.99864525 0.019382121 
-0.023702499 0.99952304 0.019795861 
0.0073742014 0.9993364 0.035671353 
0.011749561 0.99891096 0.045155257 
-0.00405408 0.9990354 0.04372438 
-0.016372252 0.9991765 0.037124887 
-0.017829342 0.99928516 0.0333378 
0.27589068 -0.5315385 0.80084413 
0.20752653 0.11817415 0.9710653 
0.1063219 0.78356606 0.6121438 
0.019837353 0.92502284 0.37939334 
-0.08967608 0.9664073 0.24086334 
-0.13763379 0.9853563 0.10064744 
-0.111054376 0.99374926 0.011373889 
-0.073760994 0.9970691 -0.020313455 
-0.050110042 0.9983039 -0.02963895 
-0.030976992 0.998716 -0.040086314 
-0.01750802 0.99873793 -0.04707396 
-0.007409467 0.9990163 -0.04372314 
0.017208826 0.9984675 -0.052598856 
0.043287948 0.99637455 -0.07323961 
0.029139461 0.9972012 -0.06885384 
-0.013199422 0.9995379 -0.02738226 
-0.023256814 0.9994602 0.023203148 
0.001519838 0.99894637 0.04586797 
0.024372734 0.99891317 0.039731503 
0.02839587 0.99923205 0.027000003 
-0.0023534687 0.99981856 0.01890124 
-0.04230753 0.9985107 0.03444708 
-0.059490483 0.99642074 0.060054645 
-0.07071848 0.9959861 0.05487045 
-0.072623976 0.9971031 0.022612771 
-0.059286263 0.99824005 0.0014420133 
-0.030644706 0.99935454 0.01874819 
0.002221258 0.9989695 0.045332797 
0.005339962 0.9984521 0.055362873 
-0.015816104 0.99871373 0.04817552 
-0.0365216 0.9987044 0.035438064 
-0.04496158 0.9986706 0.02521203 
0.6142954 0.30657077 0.727087 
0.3203693 0.68266255 0.65676135 
0.121799886 0.9072045 0.40267214 
0.023624538 0.95941556 0.28100485 
-0.07212443 0.97955436 0.18780711 
-0.111493215 0.99070966 0.07786944 
-0.091428 0.9957761 0.008423841 
-0.06773576 0.9975485 -0.017575227 
-0.050764747 0.9982653 -0.029821662 
-0.029741539 0.9988319 -0.038082406 
-0.015010296 0.99912435 -0.03905613 
-0.0039531216 0.9991959 -0.039899778 
0.02265231 0.9980506 -0.058153823 
0.042809922 0.9965608 -0.07094994 
0.021408187 0.9988954 -0.04182941 
-0.010088229 0.99980086 0.017221123 
-0.0012829434 0.99825674 0.059006974 
0.028633403 0.99787724 0.058491077 
0.039841037 0.9985231 0.03693629 
0.023949677 0.9995542 0.01782688 
-0.02110652 0.99966276 0.0151315015 
-0.06136535 0.99732465 0.03972282 
-0.07509677 0.9954626 0.058435723 
-0.084934495 0.9956798 0.03752337 
-0.0769189 0.9970374 -7.681069e-05 
-0.047957264 0.9988072 -0.009191515 
-0.011444311 0.99973714 0.019868556 
0.014644116 0.9987277 0.048255194 
0.008872646 0.9982627 0.058249645 
-0.018555399 0.9987885 0.045578815 
-0.044412695 0.99878156 0.021516249 
-0.05730417 0.998353 0.0027311265 
0.33616477 0.87919676 0.33764815 
0.18335341 0.9424006 0.2797548 
0.0954252 0.97532624 0.19908002 
0.044749193 0.98300904 0.1780193 
-0.025345959 0.9897288 0.14069337 
-0.06517002 0.99513394 0.07390121 
-0.06403286 0.9975496 0.02818936 
-0.059132252 0.99823284 0.0058796774 
-0.051373046 0.99863774 -0.009146153 
-0.035109006 0.99927706 -0.014590975 
-0.025052492 0.9996034 -0.012861387 
-0.012776833 0.9996873 -0.021494905 
0.016223993 0.9987208 -0.047890887 
0.028492194 0.9980539 -0.055468123 
0.0038283647 0.99985695 -0.016474193 
-0.010820713 0.9992154 0.038100403 
0.015528769 0.998164 0.05854468 
0.04424392 0.99818575 0.04083811 
0.0423204 0.9989171 0.019329077 
0.013075689 0.99986434 0.010020523 
-0.036450155 0.99907064 0.02300609 
-0.07224665 0.9959221 0.054035112 
-0.08582221 0.99459755 0.05839724 
-0.09497262 0.9950583 0.028969249 
-0.07146348 0.9974354 0.003970556 
-0.02242398 0.9997118 0.00857271 
0.017838258 0.99941385 0.02921959 
0.028379897 0.99875695 0.040977098 
0.008181196 0.9987974 0.04834046 
-0.028421083 0.9988537 0.038517255 
-0.06020687 0.9981015 0.012983421 
-0.07450128 0.99719596 -0.0070584565 
0.15855056 0.98406637 0.08046871 
0.1206856 0.9895178 0.079306826 
0.107861325 0.989701 0.09411744 
0.080953665 0.9882483 0.12966125 
0.01782566 0.9916535 0.12769353 
-0.027142096 0.9956063 0.08961889 
-0.03802944 0.99762154 0.05749025 
-0.04205493 0.9985657 0.03313573 
-0.039549366 0.9991211 0.013888759 
-0.03069194 0.99947196 0.01066824 
-0.02699626 0.99952346 0.0149734365 
-0.013152627 0.9999107 0.0023795865 
0.015528872 0.99957204 -0.024790186 
0.017034542 0.99953187 -0.025417427 
-0.011039994 0.99981666 0.01564473 
-0.014172507 0.99847835 0.05329371 
0.01898779 0.9987519 0.046198152 
0.039596666 0.9991314 0.012983789 
0.025855165 0.9996298 -0.008473951 
-0.009855735 0.9999177 -0.008215001 
-0.054045618 0.9983538 0.019204317 
-0.07677542 0.9954606 0.056247074 
-0.083503835 0.9947196 0.059666473 
-0.0849054 0.9954494 0.043263424 
-0.04955079 0.9979893 0.039522253 
0.0040951916 0.9989675 0.04524504 
0.036331765 0.99857676 0.039046146 
0.03042689 0.9992278 0.024863273 
-0.0024328777 0.99963677 0.026844004 
-0.0472533 0.99847 0.028720405 
-0.0808267 0.996502 0.021237185 
-0.09057891 0.9957958 0.01364607 
0.12481014 0.9914765 -0.037374698 
0.1213462 0.99259037 -0.0062900647 
0.117411904 0.9917319 0.05179281 
0.08083015 0.99109256 0.10583988 
0.016689917 0.99368626 0.11094636 
-0.024098415 0.99635327 0.08185051 
-0.031893972 0.9980145 0.054312654 
-0.029592663 0.9991736 0.027867403 
-0.019172613 0.9997716 0.009443946 
-0.0073423954 0.99989194 0.012745219 
-0.0017958946 0.9997347 0.022966707 
0.016005658 0.99976957 0.014307509 
0.0383804 0.9992584 -0.003088231 
0.019389447 0.9997879 0.006949536 
-0.019919591 0.99878865 0.044994697 
-0.017095437 0.9978987 0.062498983 
0.018721176 0.99933517 0.03128791 
0.028225763 0.99952143 -0.012664192 
0.0011179227 0.99953294 -0.030541843 
-0.035923112 0.99918544 -0.01838451 
-0.06699965 0.99751925 0.021599881 
-0.07138897 0.99545985 0.06295476 
-0.064655535 0.9955887 0.06799204 
-0.056050126 0.996632 0.059859376 
-0.018724483 0.9978026 0.06355732 
0.025868133 0.9977618 0.06166298 
0.04811426 0.9983015 0.032850984 
0.034448016 0.99940526 0.0016069374 
-0.005837348 0.9999813 0.001870989 
-0.05423005 0.99837416 0.017554238 
-0.08270188 0.9960679 0.03176904 
-0.085038856 0.99566513 0.037675355 
0.12627065 0.99114776 -0.041010287 
0.11455071 0.9934116 -0.0033983025 
0.08831779 0.9946833 0.052964013 
0.03855867 0.9955375 0.08612979 
-0.019692555 0.99720764 0.07203586 
-0.04999718 0.9979994 0.038698245 
-0.046901826 0.9987827 0.015279315 
-0.027556004 0.9996128 -0.0038455196 
-0.00045512855 0.9999374 -0.011187326 
0.019980673 0.9998003 -0.0003607312 
0.031506877 0.99945295 0.010056471 
0.053771507 0.9985467 0.0036234823 
0.06621056 0.99780273 -0.002429121 
0.028012259 0.99944973 0.01776674 
-0.013289441 0.9984659 0.053753357 
0.0017983769 0.9982529 0.059059437 
0.036730155 0.9991673 0.017767224 
0.027064282 0.9993983 -0.021695385 
-0.016083004 0.9995436 -0.025574325 
-0.051121037 0.99869144 -0.0014416615 
-0.069705896 0.9966922 0.04178323 
-0.061250076 0.9953909 0.07379334 
-0.044359487 0.9966766 0.06832272 
-0.029115649 0.99790084 0.05784645 
0.0058637746 0.99821836 0.05937888 
0.04341862 0.99781173 0.04986755 
0.06399792 0.99788857 0.011076004 
0.05257514 0.99842316 -0.019672802 
0.013859365 0.99984777 -0.010607571 
-0.028189935 0.9994914 0.014912881 
-0.040880907 0.99845773 0.0375618 
-0.030804778 0.998409 0.047230426 
0.07606803 0.99706495 -0.008665043 
0.05351543 0.99837613 0.01952527 
0.018621001 0.99854946 0.050522055 
-0.02228922 0.9985694 0.048603397 
-0.0608181 0.99808335 0.011443589 
-0.075124845 0.99690163 -0.023314115 
-0.05896521 0.99764574 -0.03501483 
-0.024234567 0.9989813 -0.03806692 
0.013472957 0.9993823 -0.03245815 
0.038093828 0.9990821 -0.019594796 
0.054988436 0.9984016 -0.013057184 
0.08192697 0.9965597 -0.0125202965 
0.08696317 0.9962093 -0.0020937524 
0.04008344 0.9988743 0.0253675 
0.0069571235 0.998534 0.053679083 
0.03483292 0.99824214 0.047952797 
0.06281278 0.99800545 0.006306501 
0.030983515 0.9992881 -0.021526957 
-0.023586366 0.9996491 -0.012061153 
-0.054025844 0.9983732 0.018224908 
-0.065795556 0.9961758 0.05748695 
-0.05215612 0.995592 0.07795139 
-0.030473437 0.9973414 0.066192955 
-0.012804658 0.9983954 0.055161975 
0.021921603 0.9985492 0.049183793 
0.060441673 0.9977685 0.028370695 
0.08450293 0.9963734 -0.00996198 
0.0844802 0.99615884 -0.02303596 
0.069541655 0.9975772 0.001969556 
0.066215545 0.9974616 0.026190983 
0.105052695 0.9939009 0.03354008 
0.14970016 0.9882258 0.031618934 
0.014461058 0.99982935 -0.011505184 
-0.008179921 0.9999317 0.008356395 
-0.03296081 0.9992225 0.021635177 
-0.0511555 0.99868804 0.0022921762 
-0.0657021 0.99710363 -0.038309876 
-0.06643581 0.99589425 -0.06148981 
-0.04599985 0.99721193 -0.058758873 
-0.011783578 0.9986936 -0.04972244 
0.019649476 0.9990977 -0.037651457 
0.038844977 0.9988976 -0.026358346 
0.05929911 0.9980208 -0.020932544 
0.090903215 0.9958252 -0.008297787 
0.09169089 0.9957029 0.012983702 
0.04560668 0.9984484 0.0319529 
0.026278304 0.99880844 0.041123435 
0.062131315 0.9977868 0.023688689 
0.074567765 0.99710006 -0.0152058 
0.023639495 0.99916166 -0.0334243 
-0.030126588 0.9994428 -0.0143693 
-0.051665697 0.99843144 0.021571735 
-0.056578558 0.9964404 0.06249412 
-0.037884526 0.9957704 0.083703026 
-0.017029585 0.9970519 0.07481666 
-0.0027953847 0.9979479 0.06396996 
0.031628925 0.99818873 0.05117578 
0.07618649 0.99677646 0.025148332 
0.11085494 0.993802 -0.008294678 
0.13278173 0.99108714 -0.010744262 
0.16798529 0.9856434 0.016975725 
0.26087037 0.96504855 0.02506218 
0.43975818 0.89804953 -0.01094081 
0.5662324 0.82327104 -0.04007242 
-0.020169346 0.99942183 -0.027374515 
-0.039267175 0.99917954 -0.009923106 
-0.051629946 0.9986662 0.00040888166 
-0.0498413 0.99861646 -0.01676389 
-0.046895884 0.9977519 -0.04787575 
-0.042958125 0.99725443 -0.060318753 
-0.028852338 0.9981849 -0.052863043 
-0.0060344753 0.9991719 -0.040239714 
0.013821636 0.9995969 -0.024802612 
0.031601395 0.99941665 -0.012951 
0.059380546 0.99823105 -0.0029752424 
0.08970843 0.99580556 0.017990941 
0.080441065 0.99623847 0.03222314 
0.034741577 0.9990964 0.024485525 
0.024782157 0.99966615 0.0073132473 
0.05830059 0.9981021 -0.019833827 
0.05693349 0.9969657 -0.053086326 
0.0070187664 0.99816006 -0.060226336 
-0.028407907 0.9992052 -0.02796551 
-0.034915045 0.9991783 0.020586848 
-0.032067552 0.9969038 0.07179574 
-0.015435408 0.9947204 0.10145471 
-0.0036908747 0.99556935 0.09395758 
0.0048495904 0.9969845 0.077449545 
0.038670942 0.99742097 0.060465306 
0.08969679 0.99542016 0.033063013 
0.13538766 0.9907927 -0.000112989226 
0.1809452 0.983492 -0.0015279801 
0.28452787 0.9582453 0.02846189 
0.5373714 0.8428103 0.030048825 
0.9140656 0.39840063 -0.07590149 
0.99159485 0.015443039 -0.12845758 
-0.041797303 0.99845076 -0.036731396 
-0.056810997 0.99821687 -0.018324718 
-0.060364168 0.99815977 -0.0057833707 
-0.04695557 0.9987159 -0.019021358 
-0.034184456 0.9983515 -0.046105947 
-0.027435187 0.9979677 -0.057513252 
-0.015587429 0.9986403 -0.049746208 
0.0019924145 0.9995299 -0.030595312 
0.017368989 0.9998345 -0.005424405 
0.03531964 0.99923944 0.016529052 
0.056912187 0.9977542 0.035321567 
0.06832022 0.99642855 0.049625102 
0.044094454 0.99841356 0.035015438 
0.004115067 0.99996203 -0.007685767 
0.00859005 0.99913514 -0.04068374 
0.04413919 0.9971626 -0.06098004 
0.042869583 0.9958645 -0.080100834 
0.0073569193 0.99721116 -0.07426927 
-0.009156043 0.99943036 -0.032483857 
-0.0069851745 0.99974555 0.021447603 
-0.007013616 0.9972203 0.07418027 
-0.0016216206 0.9947806 0.10202474 
0.00014363213 0.9959841 0.08953037 
0.0053505925 0.9975552 0.06967868 
0.03525519 0.99778605 0.056392435 
0.08413176 0.99580854 0.035878737 
0.13517052 0.99074864 0.012088207 
0.19666307 0.98012584 0.02602002 
0.34751204 0.933265 0.09084032 
0.7103215 0.6819456 0.17433773 
0.94788927 -0.30011636 0.10694009 
0.7456513 -0.66287017 0.067877084 
-0.06493576 0.9974236 -0.030489597 
-0.07529566 0.9970686 -0.013594501 
-0.074628636 0.99720955 -0.0018930086 
-0.057027273 0.99826396 -0.014731695 
-0.03588106 0.998447 -0.04261809 
-0.020309696 0.99811935 -0.05783945 
-0.005188848 0.9987625 -0.04946253 
0.006525024 0.9997067 -0.023325149 
0.011801149 0.9998787 0.010162465 
0.017066829 0.9990588 0.039880417 
0.021943158 0.9982185 0.05548323 
0.020846538 0.9986758 0.047032792 
0.004332407 0.99998736 0.0025776322 
-0.006226283 0.9985981 -0.052565854 
0.019456094 0.99745375 -0.06861191 
0.05268199 0.9966078 -0.06322752 
0.050325714 0.99633205 -0.06920795 
0.023725381 0.9976711 -0.06394949 
0.011431574 0.9994 -0.03269562 
0.007942654 0.99993753 0.007875871 
-0.0039755427 0.9989596 0.04543186 
-0.011294824 0.99799633 0.06225728 
-0.015453099 0.9984616 0.05325175 
-0.011049922 0.99884564 0.046746507 
0.016856484 0.9986654 0.048819818 
0.064672165 0.9970451 0.04145727 
0.11554771 0.99283576 0.030431181 
0.16870157 0.9838586 0.05968456 
0.29715115 0.9408565 0.16275828 
0.6226306 0.6919828 0.3653643 
0.8300077 -0.3279139 0.451176 
0.6130236 -0.6895595 0.38562918 
-0.06681728 0.99738604 -0.02750461 
-0.07501198 0.99709266 -0.013394789 
-0.076265045 0.99708766 7.389521e-05 
-0.060041886 0.9981804 -0.0055629313 
-0.034099136 0.9989906 -0.029241905 
-0.014583424 0.998771 -0.047368713 
-0.007207663 0.9991149 -0.041442797 
-0.012707795 0.99973893 -0.018991878 
-0.025030743 0.9996439 0.009246014 
-0.033112485 0.9989305 0.03227126 
-0.030215353 0.9989668 0.033946432 
-0.019933961 0.9997806 0.0064359 
-0.008688 0.99886495 -0.046834026 
0.011696166 0.9965051 -0.08270931 
0.045286484 0.99692744 -0.06391348 
0.07372491 0.9965154 -0.039009828 
0.075754985 0.99609613 -0.045317307 
0.052670483 0.9973313 -0.050559316 
0.02939819 0.99893534 -0.03555408 
0.0060765115 0.99990904 -0.012046337 
-0.023152165 0.9997082 0.0069096484 
-0.039979544 0.9991368 0.011289893 
-0.04547222 0.99892104 0.009430286 
-0.036238927 0.9991178 0.0212264 
-0.0028340376 0.999195 0.040016394 
0.043715704 0.9979862 0.04596317 
0.082333654 0.99571985 0.041990243 
0.1097301 0.99163467 0.06797222 
0.18020925 0.97057635 0.15970683 
0.36985633 0.8551333 0.3632539 
0.6198473 0.40309078 0.67328095 
0.617004 0.028569316 0.7864413 
-0.028966157 0.99888664 -0.03723524 
-0.039419934 0.99890435 -0.025221257 
-0.04864938 0.9988002 -0.005605016 
-0.039966427 0.9991985 0.0022472132 
-0.01851411 0.9996997 -0.016051961 
-0.0071744947 0.99916905 -0.040121872 
-0.016430117 0.99891293 -0.043623447 
-0.03721088 0.9987899 -0.032156754 
-0.058582716 0.99819314 -0.013364631 
-0.06585619 0.99782723 0.0019833834 
-0.05118498 0.9986862 -0.0024337796 
-0.0247321 0.9991443 -0.033151884 
0.008063098 0.9971899 -0.074481264 
0.039691694 0.99582374 -0.08221764 
0.065216616 0.9967579 -0.04712172 
0.08765682 0.9958878 -0.022886781 
0.09495974 0.99502844 -0.030020092 
0.07486491 0.9964451 -0.038631946 
0.039176095 0.9985948 -0.035690185 
-0.004113504 0.9996147 -0.027453948 
-0.04628451 0.998595 -0.02580236 
-0.06888544 0.9970998 -0.03235556 
-0.072450444 0.9970012 -0.02719785 
-0.053777225 0.9985526 0.0008515386 
-0.013498564 0.9993113 0.034566008 
0.026444722 0.99833673 0.05122918 
0.046003398 0.9975088 0.053477425 
0.05288861 0.9959187 0.07313634 
0.091432035 0.987995 0.12452349 
0.19521774 0.9540422 0.22736202 
0.33045852 0.86103576 0.386542 
0.37821126 0.787623 0.4864219 
0.010045851 0.99877137 -0.048528824 
-0.003511241 0.9991874 -0.04015173 
-0.018367179 0.99966645 -0.018155834 
-0.014947237 0.99988216 -0.0035330784 
0.001218018 0.9997196 -0.023650039 
0.0036664952 0.9983359 -0.057551075 
-0.014212282 0.9973453 -0.07141703 
-0.03675106 0.9971745 -0.06551638 
-0.05440511 0.9973759 -0.04776457 
-0.051549755 0.99826443 -0.02847582 
-0.025062539 0.99936336 -0.02539491 
0.011591048 0.9989366 -0.044625163 
0.050278883 0.9967694 -0.062632926 
0.068938285 0.9962405 -0.05246287 
0.06799499 0.9974141 -0.023276709 
0.072989084 0.9973155 -0.0058620027 
0.07949604 0.9967709 -0.01132128 
0.067279205 0.9973102 -0.029084891 
0.032945 0.9983598 -0.046823025 
-0.012327917 0.99830264 -0.05691954 
-0.050770126 0.99670446 -0.06326673 
-0.069325134 0.99551374 -0.06439358 
-0.06930863 0.9966077 -0.044378627 
-0.04996914 0.9987427 -0.004006657 
-0.019038107 0.99931395 0.031770237 
0.0020597014 0.9989111 0.046610832 
0.0044968952 0.99861693 0.052385326 
0.0071798894 0.99766743 0.06788455 
0.041146472 0.9957348 0.082578704 
0.11202808 0.98772603 0.108843796 
0.18428072 0.97050536 0.15543503 
0.20670156 0.9610258 0.18358687 