# OOMMF OVF 2.0
# Segment count: 1
# Begin: Segment
# Begin: Header
# Title: m
# meshtype: rectangular
# meshunit: m
# xmin: 0
# ymin: 0
# zmin: 0
# xmax: 1.6e-07
# ymax: 1.6e-07
# zmax: 5e-09
# valuedim: 3
# valuelabels: m_x m_y m_z
# valueunits: 1 1 1
# Desc: Total simulation time:  1.1330485201743603e-11  s
# xbase: 2.5e-09
# ybase: 2.5e-09
# zbase: 2.5e-09
# xnodes: 32
# ynodes: 32
# znodes: 1
# xstepsize: 5e-09
# ystepsize: 5e-09
# zstepsize: 5e-09
# End: Header
# Begin: Data Text
-0.21060608 -0.9775679 0.0024889112 
-0.3714482 -0.9239205 -0.091636665 
-0.71977687 -0.6381939 -0.2731846 
-0.69315225 0.6493392 -0.31288764 
-0.32662806 0.93443877 -0.14190969 
-0.14338136 0.98670244 -0.076551005 
-0.032654844 0.99811757 -0.051914927 
0.039018173 0.9989911 -0.022238348 
0.07992194 0.99643695 0.026941516 
0.0815874 0.99295235 0.08595995 
0.045238607 0.99207735 0.1172012 
0.0023307307 0.9937971 0.11118376 
-0.027525768 0.9953853 0.09192728 
-0.045686625 0.9967383 0.066525534 
-0.040823482 0.99881124 0.02663837 
-0.0033613078 0.9999646 -0.0077091064 
0.03614214 0.9992444 -0.014295539 
0.058386758 0.9982673 -0.0073210984 
0.07203682 0.9973775 -0.0070001977 
0.08251722 0.9963522 -0.021756174 
0.084779836 0.99550086 -0.04231556 
0.060612284 0.99638844 -0.059465934 
0.012887387 0.99664986 -0.080764845 
-0.032526065 0.9928848 -0.114551015 
-0.06249117 0.984079 -0.16638315 
-0.09397408 0.97096646 -0.21998416 
-0.13799664 0.9588652 -0.24806127 
-0.16305615 0.9496166 -0.26765847 
-0.16932291 0.9354896 -0.3101434 
-0.20985404 0.9116123 -0.35344663 
-0.29578584 0.88564384 -0.3579747 
-0.3679276 0.8667338 -0.3367521 
-0.59483916 -0.8035853 -0.020423055 
-0.8366936 -0.5452487 -0.051456258 
-0.9675653 0.23073839 -0.10284599 
-0.48650488 0.86936176 -0.08673651 
-0.20071389 0.97911966 -0.03222738 
-0.081501484 0.99655557 -0.015315334 
-0.012307835 0.9998681 -0.010598439 
0.03466955 0.9993697 0.0076385713 
0.058322232 0.997505 0.03977851 
0.051431715 0.99587244 0.07478631 
0.023186678 0.99570405 0.08964274 
0.0025108494 0.99634176 0.08542084 
-0.012933384 0.9967052 0.080072954 
-0.036158565 0.99724054 0.06483847 
-0.041549966 0.99878407 0.026535803 
-0.008277004 0.99991864 -0.009714613 
0.03169045 0.9993496 -0.017206308 
0.054288387 0.99847883 -0.009640827 
0.06760779 0.9976713 -0.009009951 
0.07665847 0.99683404 -0.021105008 
0.07533205 0.99650747 -0.03602844 
0.05086236 0.99742776 -0.050506067 
0.008333476 0.9973923 -0.07168783 
-0.030296793 0.9944396 -0.10085711 
-0.055200577 0.9882926 -0.14223509 
-0.082684204 0.9788844 -0.1869457 
-0.12135445 0.96949625 -0.21295573 
-0.14377329 0.96288437 -0.22843614 
-0.14930674 0.9544698 -0.25825387 
-0.17995012 0.93973947 -0.29070228 
-0.24249034 0.9234708 -0.29732174 
-0.2933269 0.9117192 -0.28762403 
-0.51188594 0.82201385 -0.24953204 
-0.5110499 0.85038126 -0.12521915 
-0.4168132 0.9086878 -0.023520943 
-0.21614957 0.97634333 0.005759757 
-0.08716454 0.995923 0.023233315 
-0.035874132 0.99893653 0.02896446 
-0.009456031 0.9996035 0.026523996 
0.014624921 0.9992514 0.03581583 
0.022549951 0.99830174 0.053714547 
0.008106041 0.9979938 0.06279124 
-0.009075709 0.99853855 0.05327715 
-0.005910353 0.9991114 0.04173069 
-0.0026046683 0.998855 0.04777048 
-0.023525808 0.9982493 0.05426639 
-0.038742907 0.99874455 0.031755015 
-0.013175957 0.99988717 -0.0072147143 
0.029499315 0.9992201 -0.026250437 
0.05577927 0.9981535 -0.02404704 
0.06425379 0.99769825 -0.021670014 
0.061803505 0.9977667 -0.025337841 
0.050801232 0.9983011 -0.02853613 
0.028747179 0.9989119 -0.03672244 
0.000557284 0.99848455 -0.055029497 
-0.021041932 0.9968153 -0.07691863 
-0.034016084 0.9938217 -0.10564822 
-0.053816255 0.98825824 -0.14300182 
-0.08492273 0.9811145 -0.173789 
-0.103468575 0.97608966 -0.19116288 
-0.10885207 0.9717372 -0.20947121 
-0.13047916 0.9643741 -0.23012564 
-0.16906129 0.9565231 -0.2376592 
-0.19823031 0.951236 -0.23633607 
-0.2271045 0.96677905 -0.117311165 
-0.21952601 0.9740782 -0.054590754 
-0.19356057 0.9810675 -0.006403092 
-0.11023514 0.9939047 -0.0012891485 
-0.028863093 0.99947345 0.014828017 
0.0037391891 0.9994402 0.03324643 
0.013771947 0.9989366 0.04400161 
0.016744813 0.99801475 0.06071479 
-0.00079891714 0.9972762 0.07375447 
-0.03113698 0.99744797 0.06425089 
-0.050505385 0.9981529 0.033766214 
-0.044245157 0.99901044 0.0045464183 
-0.025731536 0.99966526 0.002729116 
-0.019183472 0.9995156 0.024507264 
-0.019573705 0.9993827 0.02917513 
-0.00054260454 0.99999785 -0.0019921523 
0.03396196 0.9988656 -0.033378255 
0.055720713 0.9975905 -0.041334826 
0.054932445 0.9977823 -0.037590116 
0.04036961 0.9987472 -0.029571185 
0.023699874 0.9995128 -0.020315176 
0.0096500795 0.9997092 -0.022101786 
-0.00027999308 0.99938196 -0.035152122 
-0.005339342 0.9987538 -0.04962263 
-0.0081638545 0.9976084 -0.06863493 
-0.017210606 0.99472487 -0.101125285 
-0.034718663 0.9901921 -0.1353304 
-0.045621034 0.9871873 -0.15290563 
-0.05213118 0.9851549 -0.16356082 
-0.06861826 0.9815341 -0.17855623 
-0.08852731 0.9782381 -0.18765223 
-0.10034641 0.9767273 -0.1895634 
-0.08990054 0.9878099 -0.1270812 
-0.096781895 0.9904377 -0.098318554 
-0.09279241 0.9922714 -0.08238312 
-0.034966078 0.99643195 -0.0768167 
0.03436023 0.9983117 -0.04683184 
0.06972067 0.9975265 -0.008933307 
0.07788571 0.9965738 0.027829492 
0.062087774 0.9960357 0.06370348 
0.019257057 0.9960993 0.08611265 
-0.036959767 0.99614775 0.07952158 
-0.07914177 0.99601996 0.04099725 
-0.087744184 0.99612737 -0.005603449 
-0.06355542 0.9976239 -0.026594471 
-0.024664177 0.99960715 -0.013318174 
0.0050376053 0.99998623 0.0014676426 
0.02335575 0.9996447 -0.012843596 
0.039347272 0.9986284 -0.0345426 
0.046744674 0.998126 -0.03949298 
0.041025937 0.9986248 -0.03264068 
0.027832184 0.99940854 -0.020198066 
0.014031805 0.9998189 -0.012859515 
0.0072265877 0.9997749 -0.01995138 
0.009361613 0.99937963 -0.033952307 
0.011675406 0.99896854 -0.043881692 
0.0112772975 0.99858797 -0.051912695 
0.008871957 0.99726444 -0.073382355 
0.0050209053 0.99477625 -0.10195564 
0.0059636347 0.99320143 -0.116256446 
0.003209321 0.9922585 -0.12414877 
-0.0074805184 0.9900964 -0.1401898 
-0.014371189 0.9881009 -0.15313494 
-0.014895127 0.9875064 -0.15687387 
0.03830459 0.98560125 -0.16469112 
0.023677396 0.988324 -0.15051582 
0.017399384 0.99032354 -0.13768321 
0.04705517 0.99202627 -0.11691768 
0.08634595 0.993232 -0.07768231 
0.10173082 0.9942105 -0.034590255 
0.096165285 0.99536496 -0.0010023065 
0.07889305 0.9965752 0.024777357 
0.048776194 0.99766666 0.047772206 
-0.0012327143 0.99819404 0.060059123 
-0.053380392 0.99775994 0.04032046 
-0.07758286 0.99698246 0.002647716 
-0.06646061 0.9975106 -0.023573501 
-0.02780208 0.9991203 -0.031398542 
0.009765056 0.99949664 -0.030184455 
0.02668357 0.9992075 -0.029536366 
0.03115918 0.99922884 -0.023893083 
0.030972773 0.99941003 -0.014840871 
0.03058973 0.9994767 -0.010523874 
0.02819135 0.9995554 -0.009710778 
0.01842214 0.99968785 -0.016878117 
0.014276662 0.99935615 -0.03291512 
0.022109522 0.9985612 -0.04885445 
0.02617667 0.9981126 -0.05555308 
0.024551582 0.9981974 -0.05476479 
0.025544561 0.9976391 -0.06374703 
0.034546703 0.9962107 -0.07981734 
0.048783477 0.99499434 -0.087215886 
0.052188724 0.993968 -0.09645769 
0.046807207 0.99159926 -0.120582275 
0.047739465 0.98889726 -0.14072372 
0.053297948 0.98776925 -0.14653106 
0.07422948 0.98773706 -0.13735211 
0.0684168 0.9897198 -0.12559405 
0.067742795 0.9919895 -0.106620096 
0.07507131 0.9941848 -0.07720848 
0.07716791 0.9962011 -0.040356923 
0.05717392 0.99825066 -0.015060081 
0.038570616 0.9991027 -0.017495504 
0.043392558 0.9987965 -0.02286144 
0.051987015 0.99864155 -0.0035462023 
0.025664026 0.9993209 0.026442805 
-0.020312833 0.9995846 0.02044709 
-0.03596083 0.99932295 -0.0077717067 
-0.027520496 0.9993891 -0.021544844 
-0.014553488 0.999368 -0.032432217 
-0.000992162 0.99899554 -0.044798065 
0.013511946 0.99918824 -0.03795201 
0.025455026 0.99962264 -0.010327336 
0.027211975 0.99958646 0.009296525 
0.025210867 0.99966794 0.0053446027 
0.020118337 0.9997558 -0.00914895 
0.008171493 0.9996541 -0.024999585 
0.009301902 0.99910057 -0.041370176 
0.027402738 0.99813306 -0.05458584 
0.03917036 0.9975551 -0.057876356 
0.039963156 0.99780446 -0.05281248 
0.04100766 0.9977997 -0.052098982 
0.055278987 0.9969514 -0.055064872 
0.07685885 0.99544626 -0.056386832 
0.08751145 0.9937438 -0.06939039 
0.090138234 0.99086297 -0.10032796 
0.09658172 0.98780286 -0.122137316 
0.103469536 0.98663014 -0.12591727 
-0.00576807 0.9935778 -0.1130043 
0.018657748 0.9959825 -0.08758365 
0.054145362 0.99692374 -0.05666862 
0.06944319 0.9974404 -0.017037675 
0.047037758 0.99866176 0.021497823 
-0.0064654974 0.99970317 0.023491241 
-0.03463718 0.9992419 -0.017775156 
-0.012666851 0.9985852 -0.051644407 
0.021455675 0.9988528 -0.04281175 
0.019401832 0.9996883 -0.015714146 
0.0013572002 0.999779 -0.020978495 
0.015095262 0.999207 -0.03684499 
0.028500287 0.9992306 -0.026941396 
0.009131485 0.9996919 -0.023083102 
-0.010999134 0.9992495 -0.037141144 
0.0016030392 0.9995016 -0.031530187 
0.025952194 0.9996628 -0.0009437495 
0.026901258 0.9995046 0.016337147 
0.012230533 0.99991685 0.004105079 
-0.0012676036 0.9998806 -0.015399898 
-0.0075924047 0.99962646 -0.026257442 
0.0065122577 0.99944663 -0.03262015 
0.03373984 0.9987637 -0.0365064 
0.04975959 0.9981463 -0.035041947 
0.04894319 0.99833417 -0.030554371 
0.043919627 0.99867076 -0.026977383 
0.055485725 0.9982121 -0.02222852 
0.07973119 0.99664146 -0.018675728 
0.09918532 0.9945559 -0.03195098 
0.11282696 0.9917424 -0.060968056 
0.1256012 0.98925424 -0.07483686 
0.13305138 0.9885676 -0.07093272 
-0.15279476 0.98815227 -0.014453417 
-0.082806095 0.99460363 0.06250442 
-0.009101247 0.99513197 0.09813036 
0.0095716715 0.99347746 0.113626495 
-0.028197926 0.9938939 0.1066757 
-0.08588064 0.9949759 0.051453937 
-0.09592956 0.99486566 -0.032246448 
-0.05013065 0.99531513 -0.08267243 
0.0028709243 0.99705505 -0.07663591 
0.01953571 0.99868226 -0.04745798 
0.020253368 0.9987061 -0.04664801 
0.04810538 0.9973 -0.055485614 
0.0640315 0.9973422 -0.034762416 
0.025702683 0.99956244 -0.0146452505 
-0.018107304 0.999623 -0.020642824 
-0.009699588 0.9997003 -0.022479558 
0.019750485 0.9997904 -0.005415026 
0.016752405 0.9998525 0.0037967514 
-0.0057271672 0.99995226 -0.007924049 
-0.014878948 0.99967325 -0.020786555 
-0.005851373 0.9997546 -0.02136989 
0.017008536 0.9997315 -0.015740437 
0.04097066 0.9991211 -0.008855024 
0.05066997 0.9987111 -0.0029503272 
0.042466372 0.9990979 -0.00026583995 
0.02906851 0.9995737 0.0027477124 
0.035609327 0.99931836 0.009733964 
0.06152186 0.9979917 0.015087911 
0.089518234 0.9959798 0.0032984964 
0.11327564 0.9933752 -0.019354036 
0.13130894 0.9910506 -0.024014866 
0.13912503 0.9901818 -0.013579963 
-0.6602417 0.7388874 0.13463373 
-0.43002388 0.85109353 0.30119675 
-0.2172632 0.9393896 0.2652245 
-0.13534878 0.9711354 0.19641006 
-0.12486732 0.9855237 0.114679165 
-0.1277196 0.9914949 0.02501382 
-0.10621839 0.9929266 -0.053052377 
-0.055704784 0.9941516 -0.0925186 
-0.005563992 0.996283 -0.0859607 
0.01744447 0.9979355 -0.061810028 
0.029817397 0.99783266 -0.058659423 
0.05847137 0.99626 -0.063616894 
0.07095207 0.9965412 -0.043260057 
0.029898267 0.9994519 -0.014219924 
-0.018890608 0.9997688 -0.010275595 
-0.014988079 0.9996662 -0.02104696 
0.01025119 0.99970436 -0.022052957 
0.0041279057 0.9998144 -0.01881813 
-0.015266731 0.999633 -0.02237857 
-0.013093351 0.99964505 -0.023204044 
0.006122874 0.9998943 -0.013189636 
0.02866712 0.9995883 0.0012390662 
0.045648012 0.9988754 0.0128212 
0.048522078 0.99865216 0.01842877 
0.03458247 0.99918664 0.020743566 
0.018452507 0.9995104 0.025269227 
0.025224948 0.99926674 0.028805343 
0.052427236 0.998317 0.02479042 
0.08159 0.996645 0.006469594 
0.10376722 0.9944871 -0.015093293 
0.11591865 0.9931016 -0.017670894 
0.11847887 0.99293023 -0.007234849 
-0.9800369 -0.19785589 0.019512279 
-0.75414705 0.49486107 0.43171167 
-0.33127892 0.90835816 0.25522533 
-0.14981061 0.9801553 0.12981696 
-0.086443365 0.99487853 0.05238549 
-0.06330496 0.99789083 0.0143660465 
-0.07233496 0.99726903 -0.014907702 
-0.0699325 0.9958005 -0.059083626 
-0.03741834 0.99506867 -0.09185984 
0.009515737 0.99535763 -0.09577371 
0.046647497 0.9957855 -0.07896465 
0.059834983 0.99627864 -0.0620375 
0.050033845 0.99775624 -0.0444887 
0.015534872 0.9996813 -0.019901192 
-0.015835553 0.9998074 -0.011597394 
-0.009785107 0.9995669 -0.027754044 
0.0066431374 0.9991198 -0.041420054 
-0.0014770919 0.99924254 -0.038885895 
-0.012625976 0.99949 -0.029331073 
-0.0015314847 0.99987245 -0.01590422 
0.01765122 0.99984396 0.00073329185 
0.03427377 0.99931586 0.013900056 
0.04785921 0.99864185 0.020593729 
0.050521582 0.99845624 0.0230818 
0.038291138 0.9988634 0.028384425 
0.026957262 0.99906504 0.033800133 
0.03478826 0.99912703 0.023129007 
0.054161437 0.99853194 -0.0008180025 
0.06880536 0.9972487 -0.027584102 
0.07236251 0.9962119 -0.04822369 
0.06748801 0.9963004 -0.05320639 
0.061320547 0.9969468 -0.048341453 
-0.6628843 -0.7184938 0.2105972 
-0.6936077 0.16781132 0.7005339 
-0.2643526 0.94423825 0.19629584 
-0.055242807 0.9983351 0.016594175 
0.017225366 0.9998095 -0.009185275 
0.02387488 0.99937236 0.026171593 
-0.034242027 0.9987824 0.0355145 
-0.07782055 0.99657047 -0.028130898 
-0.052747242 0.99341035 -0.10175252 
0.015335709 0.99279225 -0.11886301 
0.05313088 0.9950414 -0.08408284 
0.034595735 0.9976815 -0.0586072 
0.0071817655 0.9985593 -0.05317676 
-0.0053922567 0.9993433 -0.03583316 
-0.006440244 0.9997096 -0.023224046 
0.005374126 0.99922186 -0.039075654 
0.013166909 0.9983888 -0.055194896 
0.0050804266 0.9990339 -0.043651637 
0.0026988098 0.9998637 -0.016294934 
0.015441255 0.9998496 0.007905415 
0.023929846 0.9994983 0.02074931 
0.029576803 0.99929523 0.023117574 
0.041259725 0.9989008 0.022250675 
0.05151149 0.99840254 0.023217231 
0.052615594 0.99815744 0.030223537 
0.049806062 0.99834037 0.02891371 
0.04810852 0.9988418 0.00075613585 
0.044689626 0.9984439 -0.033356253 
0.035259735 0.99793684 -0.053655848 
0.020349499 0.9977767 -0.0634643 
0.0072280387 0.9976274 -0.068465464 
0.00020130674 0.99756366 -0.069762714 
-0.3086922 -0.8954781 0.32066822 
-0.39225054 -0.32970595 0.8587396 
-0.16477351 0.94694173 0.2759549 
-0.0051390426 0.9996842 0.024599753 
0.05160199 0.99862874 -0.00883149 
0.05586159 0.9975565 0.0419578 
-0.012479473 0.9976737 0.067018725 
-0.07397709 0.99725467 -0.0032701504 
-0.05464449 0.99434114 -0.091103315 
0.0090474365 0.99346626 -0.11376728 
0.03310335 0.9956462 -0.08713744 
0.0028322577 0.9974298 -0.07159434 
-0.019794201 0.997234 -0.07164297 
-0.006518637 0.9985058 -0.05425802 
0.016372412 0.999257 -0.034891415 
0.027904332 0.998729 -0.04197357 
0.024116192 0.99849534 -0.049249202 
0.014297733 0.99956155 -0.025930367 
0.016082326 0.9997968 0.012153071 
0.023501286 0.9990576 0.036491156 
0.020333242 0.9990705 0.038009457 
0.020268146 0.9993798 0.02879959 
0.03645261 0.9990719 0.022948679 
0.059654474 0.99795914 0.022781687 
0.0724599 0.9970113 0.026797317 
0.06709825 0.9976088 0.016574498 
0.04903223 0.99867064 -0.01590104 
0.029306429 0.9987828 -0.039674483 
0.010166336 0.9991616 -0.039659802 
-0.0024932406 0.999363 -0.035600245 
-0.004317469 0.99896824 -0.04520859 
-0.0016351396 0.9984642 -0.055376817 
-0.16199714 -0.88454974 0.43741134 
-0.24362034 -0.39476112 0.8858966 
-0.11451174 0.9276122 0.3555597 
0.002508381 0.9982577 0.058951788 
0.050851375 0.9987061 0.00063569733 
0.06606271 0.9968447 0.04400622 
0.0066298307 0.99669254 0.08099451 
-0.06209818 0.9978456 0.021166531 
-0.055674557 0.99621505 -0.066753305 
-0.005911933 0.9944312 -0.10522186 
0.018409796 0.99463767 -0.101770006 
0.0025868046 0.9960004 -0.08931233 
-0.0076359254 0.9970225 -0.07673211 
0.013662002 0.99866146 -0.049887493 
0.036748562 0.9990567 -0.023137562 
0.035676975 0.999106 -0.022679238 
0.018226022 0.99945503 -0.027522637 
0.006834044 0.9999554 -0.0065221586 
0.012636498 0.9995295 0.027948126 
0.020516163 0.9987584 0.04539786 
0.018095965 0.9991083 0.038146082 
0.020726012 0.9994706 0.025077654 
0.03993946 0.99900043 0.020074382 
0.06526744 0.99764055 0.021298258 
0.075886875 0.9968194 0.024340553 
0.06591251 0.9977273 0.01399336 
0.048404504 0.99878615 -0.009121597 
0.031292602 0.9993521 -0.017779915 
0.017763902 0.9998343 -0.004001241 
0.023961527 0.99971014 -0.002367402 
0.041055117 0.9987559 -0.028307516 
0.055541232 0.99728507 -0.048350405 
-0.10687448 -0.60023844 0.79264855 
-0.12660125 0.12791012 0.9836723 
-0.03434891 0.9259673 0.37603837 
0.031583913 0.9948192 0.096629806 
0.06300481 0.99759847 0.028771369 
0.07478096 0.9952138 0.062907584 
0.013660999 0.99480116 0.100916706 
-0.058842894 0.99713814 0.04746688 
-0.05871925 0.9975233 -0.038722813 
-0.0134351095 0.99589336 -0.08953266 
0.02186297 0.9949852 -0.09760355 
0.023484942 0.9968262 -0.07606592 
0.01749381 0.99870056 -0.04786627 
0.031817276 0.999348 -0.017066665 
0.043277454 0.9990487 0.0053598857 
0.026367309 0.9996447 -0.003898844 
-0.002266609 0.9996762 -0.025344962 
-0.011808866 0.99974394 -0.019305889 
0.0013433235 0.9999564 0.009245255 
0.015112238 0.99952596 0.026824262 
0.01858331 0.9995438 0.023812326 
0.024208797 0.99955845 0.017233027 
0.039821766 0.99905896 0.017187526 
0.05769777 0.9980557 0.02357699 
0.065736 0.99727595 0.033459254 
0.06565011 0.9973487 0.03139374 
0.06283549 0.99791914 0.014461243 
0.050520223 0.9986944 0.007572377 
0.048180345 0.99871224 0.015891068 
0.073493734 0.9972448 -0.010088025 
0.09446464 0.99372613 -0.059874523 
0.10890308 0.9903772 -0.08540018 
0.11151692 0.5461778 0.8302131 
0.06559124 0.7840471 0.6172261 
0.061018247 0.96189195 0.26653484 
0.075734854 0.99096286 0.110711284 
0.08280042 0.99435556 0.066341795 
0.07655883 0.9924261 0.09606952 
0.005797528 0.9918977 0.12690741 
-0.06805621 0.9949121 0.07428651 
-0.06911315 0.9975532 -0.010538228 
-0.023044258 0.99755716 -0.06594573 
0.023617605 0.9969861 -0.0738986 
0.040270347 0.9983807 -0.040179066 
0.03784857 0.9992826 -0.0013090343 
0.045364603 0.99867547 0.02428051 
0.047636703 0.99849963 0.02700491 
0.02148345 0.9997342 -0.008373674 
-0.011706195 0.99861306 -0.0513332 
-0.019589134 0.99844193 -0.05225053 
-0.0055730026 0.99979204 -0.019617984 
0.00743707 0.999961 0.004767025 
0.013565102 0.9998675 0.009000061 
0.021917623 0.9997383 0.006557978 
0.033781998 0.99939257 0.008556119 
0.044242527 0.9987442 0.02350747 
0.054858666 0.9973005 0.048808366 
0.07388058 0.9956249 0.057209283 
0.08746168 0.995536 0.035477903 
0.07703786 0.996861 0.018260103 
0.082305476 0.9965825 0.0070107565 
0.102706224 0.99317783 -0.055220477 
0.09942867 0.98836696 -0.115085475 
0.10003799 0.9860311 -0.13317311 
0.19626199 0.9106199 0.3636656 
0.15411222 0.94449365 0.2901403 
0.12437562 0.9754899 0.18152197 
0.10450144 0.9858929 0.1307467 
0.07950029 0.9907109 0.11032561 
0.046554927 0.99080765 0.12701538 
-0.027111933 0.9906233 0.133905 
-0.085149355 0.99374974 0.07218824 
-0.07478949 0.99716264 -0.008555019 
-0.025644459 0.99818146 -0.054556057 
0.024990309 0.9984746 -0.04923542 
0.048014536 0.9988449 -0.0018752745 
0.047189645 0.9980836 0.040028095 
0.054359496 0.99721014 0.05115626 
0.058094155 0.9978377 0.030739937 
0.031951644 0.9992307 -0.022739835 
-0.0014608992 0.9975602 -0.069796905 
-0.009794263 0.99782765 -0.065147586 
-0.00026110688 0.9995552 -0.02982312 
0.0057174773 0.999961 -0.0067436136 
0.008026573 0.9999646 -0.0025257932 
0.015512532 0.9998672 -0.005011609 
0.023228906 0.9997295 -0.0011839045 
0.027136661 0.9993217 0.024893025 
0.044383302 0.99676794 0.06696145 
0.0900062 0.99286413 0.07822909 
0.12464456 0.99150467 0.03718045 
0.114439495 0.99342287 0.0038185732 
0.114167094 0.9933535 -0.014659846 
0.11577249 0.9906661 -0.071954995 
0.106976286 0.9896306 -0.095851555 
0.1131093 0.9894775 -0.09022556 
0.20616403 0.9592205 0.19337137 
0.16471314 0.9691664 0.1832654 
0.1170164 0.98022723 0.15956715 
0.06637808 0.98837805 0.13675879 
0.025865464 0.9939659 0.10659669 
-0.003708377 0.9948381 0.10140719 
-0.049842365 0.99433726 0.09385792 
-0.07766667 0.9961975 0.03947694 
-0.05644522 0.9981567 -0.022298843 
-0.012788198 0.9987581 -0.048153326 
0.02968838 0.99916756 -0.027979735 
0.047218833 0.9986034 0.023698473 
0.044382494 0.99745345 0.055829942 
0.05663491 0.99713844 0.050076496 
0.06704 0.9975485 0.020066647 
0.044490237 0.9985835 -0.029181942 
0.014511146 0.99789107 -0.06326879 
0.0071653477 0.998605 -0.05231448 
0.012720194 0.99963325 -0.023909373 
0.012345723 0.9998801 -0.009358067 
0.010228999 0.999919 -0.0075840037 
0.015254928 0.9998316 -0.010199237 
0.016413828 0.99985343 -0.0048761293 
0.01068261 0.99953824 0.028448625 
0.03188529 0.9964452 0.077976756 
0.10235892 0.9915884 0.07921556 
0.15507533 0.98782897 0.012071916 
0.13964199 0.98987776 -0.02534048 
0.13585599 0.99069595 -0.008056617 
0.16925232 0.985437 0.01636428 
0.27424255 0.9562646 0.10173046 
0.3544465 0.9253678 0.13439535 
0.11086769 0.9804999 0.1622603 
0.07600342 0.9862467 0.14676872 
0.034065157 0.992416 0.11811013 
-0.0040599867 0.9968834 0.07878469 
-0.02001991 0.9988071 0.04453805 
-0.027081354 0.99861103 0.045197647 
-0.048833624 0.99774086 0.04613617 
-0.055769198 0.99840057 0.009275101 
-0.028820444 0.99920243 -0.027639868 
0.004846942 0.99948806 -0.031624805 
0.03048468 0.9995264 -0.00423158 
0.034112383 0.998782 0.035651032 
0.031004261 0.9984594 0.046018224 
0.054727413 0.99812907 0.027265962 
0.07348959 0.99729335 0.002314462 
0.053920466 0.99809974 -0.02982501 
0.025796503 0.9985024 -0.048244774 
0.017650085 0.9992033 -0.035794836 
0.02231614 0.99960923 -0.01683623 
0.022969034 0.9996826 -0.010348911 
0.020981282 0.9996997 -0.0126590915 
0.02239706 0.9996029 -0.017097851 
0.013740169 0.9998558 -0.009983661 
-0.0055758203 0.999601 0.027689865 
0.009802323 0.9967325 0.080177784 
0.09067207 0.992692 0.079632245 
0.15678847 0.9875995 0.00804403 
0.14360404 0.98953205 -0.014296565 
0.15576598 0.9846462 0.078797154 
0.29641673 0.90803236 0.2959975 
0.67824703 0.2898178 0.6752678 
0.7340789 -0.35463685 0.5791035 
-0.014152581 0.9952263 0.096562795 
-0.027179353 0.99709433 0.07116365 
-0.040625066 0.9985503 0.035313465 
-0.049611174 0.99876827 -0.0008681507 
-0.047786962 0.99875385 -0.01439924 
-0.050267417 0.99873513 -0.0011403451 
-0.058292326 0.99829686 0.0023047118 
-0.045820296 0.9987715 -0.018870084 
-0.014397355 0.9995294 -0.027087992 
0.0060252068 0.9999098 -0.012004667 
0.014820749 0.9998232 0.011572152 
0.011338928 0.99949527 0.029675584 
0.019487446 0.99963236 0.018853635 
0.059847374 0.9982055 -0.0020705347 
0.08289224 0.9964685 -0.013400044 
0.061311934 0.9977082 -0.0286233 
0.031793904 0.9988341 -0.03632721 
0.020874064 0.9994904 -0.024154685 
0.025155364 0.99962544 -0.0107899755 
0.030957839 0.9994568 -0.0113046095 
0.034671858 0.9991323 -0.023076447 
0.035165418 0.9988006 -0.03407174 
0.016503029 0.9995166 -0.026347244 
-0.019326376 0.99969566 0.0153314 
-0.019363154 0.9968196 0.07730298 
0.06178143 0.99339414 0.09670163 
0.14545108 0.98858064 0.03939867 
0.13858663 0.99010754 0.021930208 
0.12484817 0.9781758 0.16608773 
0.16348058 0.8183621 0.5509608 
0.07066189 -0.6080392 0.7907561 
0.057927 -0.9264116 0.37202945 
-0.06255104 0.9978981 0.016933257 
-0.060548864 0.99815196 -0.005166043 
-0.05851775 0.99774647 -0.03282944 
-0.05810582 0.99686414 -0.05371944 
-0.060231943 0.996831 -0.0519628 
-0.06519104 0.9970464 -0.04060476 
-0.061631493 0.9973742 -0.038030863 
-0.040976502 0.99831796 -0.041014496 
-0.018359272 0.999518 -0.025036583 
-0.011446745 0.9999324 -0.0020718984 
-0.0072209374 0.9999026 0.011943932 
-0.0049962862 0.9998967 0.013474327 
0.018142262 0.9998234 -0.0049215537 
0.067403875 0.9975792 -0.017103886 
0.0872451 0.99605346 -0.016307138 
0.06421503 0.99767375 -0.022883672 
0.035393402 0.9990522 -0.025339274 
0.019743357 0.99972844 -0.0123829 
0.01988636 0.9998009 -0.0016181833 
0.030928425 0.9994529 -0.011726102 
0.044295914 0.99826974 -0.038671944 
0.046756648 0.99709564 -0.060117606 
0.02138596 0.99820083 -0.056015693 
-0.02571194 0.9995428 -0.01591378 
-0.045309637 0.9975251 0.053767044 
0.015330709 0.9943008 0.10550397 
0.1037282 0.99084556 0.08640361 
0.1146782 0.99118435 0.06635125 
0.06722406 0.98207396 0.17610124 
-0.070746966 0.8576514 0.50934166 
-0.511763 -0.44115493 0.7372117 
-0.38813347 -0.8660576 0.3151141 
-0.05258739 0.99842334 -0.019634858 
-0.04477239 0.9984097 -0.034259368 
-0.03831308 0.99791056 -0.052025605 
-0.036659203 0.99743855 -0.06142053 
-0.04364093 0.9974768 -0.05599554 
-0.049615547 0.99752563 -0.049808763 
-0.050265152 0.99760705 -0.047471855 
-0.044218708 0.9979668 -0.04590252 
-0.03870955 0.99882406 -0.029193984 
-0.03448574 0.9993094 -0.013835246 
-0.019975357 0.99978364 -0.0058013843 
-0.008346762 0.99995476 -0.004581398 
0.019115888 0.99968886 -0.016027052 
0.06278567 0.99788463 -0.016860604 
0.07598162 0.99705964 -0.009944623 
0.058501974 0.9981964 -0.013474003 
0.03661239 0.99925274 -0.012390924 
0.015404749 0.99988 0.001680997 
0.006034442 0.9999413 0.00900128 
0.019491196 0.9997434 -0.011545897 
0.04314367 0.9976619 -0.053004194 
0.048869614 0.99497575 -0.08737851 
0.02296206 0.9953469 -0.09358059 
-0.022771647 0.9978815 -0.060944207 
-0.05561536 0.99838847 0.011288087 
-0.029709514 0.9954695 0.09032036 
0.037183702 0.992661 0.11507201 
0.05355551 0.9926475 0.1085481 
-0.008532862 0.98249316 0.18610302 
-0.19804475 0.8844699 0.4224825 
-0.6887852 0.14152464 0.71101743 
-0.7300797 -0.5088889 0.45608753 
-0.047215473 0.9987046 -0.018972632 
-0.036616303 0.9989658 -0.026956812 
-0.024994792 0.99899805 -0.037125554 
-0.017670305 0.99906266 -0.039516494 
-0.02029541 0.9991652 -0.035456233 
-0.025242673 0.9991199 -0.033500485 
-0.036875974 0.99856555 -0.038820237 
-0.04500366 0.99781847 -0.04830216 
-0.047705047 0.9978657 -0.04459247 
-0.037293255 0.99854296 -0.03900353 
-0.017538108 0.9994421 -0.028427238 
-0.01185381 0.9996995 -0.021459097 
0.006752869 0.9996675 -0.024885584 
0.039152656 0.99909234 -0.016780734 
0.050085027 0.99871975 -0.0070964796 
0.04603383 0.99891496 -0.0070687346 
0.033769447 0.9994297 5.186078e-05 
0.005413944 0.99988604 0.014093994 
-0.015519884 0.99976933 0.014845277 
-0.0024284103 0.99991214 -0.013033571 
0.02705659 0.997764 -0.06111526 
0.035362 0.9938375 -0.10505606 
0.016248161 0.99244255 -0.12163007 
-0.015465722 0.99519277 -0.09670622 
-0.048686348 0.998338 -0.03083738 
-0.055895086 0.99705493 0.052510455 
-0.02778443 0.9943204 0.102738224 
-0.021458477 0.9930783 0.11547789 
-0.07631873 0.98187006 0.17351274 
-0.20570336 0.922092 0.32776907 
-0.49335575 0.67397326 0.549873 
-0.72799426 0.33129546 0.6002231 
-0.044442713 0.99901074 0.0015935275 
-0.03200973 0.9994792 -0.004096204 
-0.0151277585 0.999816 -0.011797009 
-0.001487387 0.99992204 -0.012405877 
0.0041305907 0.9999417 -0.009979832 
0.0020479055 0.99996 -0.008707745 
-0.013243974 0.9997205 -0.019586144 
-0.026281703 0.99903363 -0.035231467 
-0.03433905 0.99853325 -0.041860234 
-0.027110213 0.99859923 -0.04543756 
-0.020832803 0.9989547 -0.04068919 
-0.028921807 0.99873143 -0.041221682 
-0.016809126 0.998964 -0.042289704 
0.008338251 0.9995807 -0.027731977 
0.021890154 0.9996572 -0.014366678 
0.02988764 0.999542 -0.0047549466 
0.02120223 0.9997212 0.010390705 
-0.014207152 0.9997127 0.019308425 
-0.041665465 0.9990847 0.009685527 
-0.028015535 0.9993897 -0.020864068 
0.0052896827 0.99779576 -0.066149205 
0.019153826 0.9936951 -0.110468216 
0.011672395 0.99174786 -0.12767132 
-0.005837335 0.99451655 -0.10441729 
-0.03682328 0.99811727 -0.049053133 
-0.06371126 0.99768144 0.023933541 
-0.059094083 0.9952484 0.07738646 
-0.056659028 0.99446315 0.0885033 
-0.10491293 0.98775667 0.11545656 
-0.2022736 0.9564381 0.21050318 
-0.35570857 0.8667112 0.3496899 
-0.49896136 0.7526964 0.42951813 
-0.027084488 0.9992775 0.02666646 
-0.0146261435 0.9997051 0.019389665 
0.0029319925 0.9999495 0.009614679 
0.017463377 0.999823 0.006997279 
0.02749865 0.99957633 0.009547711 
0.027398996 0.99951684 0.014675499 
0.013843371 0.99987715 0.007351715 
-0.0023502847 0.99998957 -0.003925563 
-0.018886724 0.99970704 -0.015139755 
-0.023268333 0.999333 -0.02814631 
-0.034563612 0.9986458 -0.038884494 
-0.04922615 0.9972578 -0.055259388 
-0.036529955 0.9977224 -0.056707095 
-0.014698955 0.99919015 -0.03745758 
0.0012906586 0.9998049 -0.019712882 
0.0133258235 0.9999102 -0.0014429513 
0.002780035 0.9998887 0.014655336 
-0.033732146 0.9993732 0.010745122 
-0.059091475 0.9981788 -0.012138394 
-0.04359413 0.9981771 -0.041738864 
-0.00783186 0.9972514 -0.07367694 
0.014111557 0.99465847 -0.10225143 
0.017017758 0.9941941 -0.1062478 
0.0046376926 0.996604 -0.082212724 
-0.02896804 0.9985097 -0.046253417 
-0.0675597 0.99770695 0.0040894826 
-0.07170817 0.9959825 0.053634897 
-0.05343699 0.99664336 0.062020816 
-0.06872793 0.9963004 0.05159404 
-0.13309571 0.9880409 0.07785054 
-0.23513615 0.96242005 0.13586307 
-0.32298097 0.9305106 0.17272346 
0.0040514097 0.9993834 0.034880344 
0.016732669 0.99946153 0.02822548 
0.033026457 0.9992297 0.021193678 
0.044837467 0.9987614 0.021570005 
0.053753156 0.99811524 0.029609142 
0.050226938 0.9978901 0.04114021 
0.033319023 0.9985477 0.042338073 
0.005000405 0.99922425 0.03906489 
-0.025062699 0.9993762 0.024884501 
-0.042066082 0.99911046 0.0029518367 
-0.06272035 0.9976407 -0.027913237 
-0.06897025 0.9958258 -0.059784845 
-0.0502343 0.99705905 -0.057877004 
-0.0331778 0.9987803 -0.036568847 
-0.015389257 0.9996648 -0.020825462 
0.001423741 0.999996 -0.0024461308 
-0.0053487374 0.9999637 0.0066306493 
-0.03331101 0.9993871 -0.010762377 
-0.051578727 0.997872 -0.039888408 
-0.03913322 0.99747044 -0.059341725 
-0.00952342 0.99749166 -0.070140265 
0.013344819 0.9968914 -0.077650934 
0.018507892 0.9973908 -0.069779046 
0.0063135717 0.99881285 -0.04830099 
-0.021848245 0.9993197 -0.029711533 
-0.053848226 0.99851847 -0.00782763 
-0.05994485 0.99801534 0.01928917 
-0.036037955 0.9990797 0.023260005 