# OOMMF OVF 2.0
# Segment count: 1
# Begin: Segment
# Begin: Header
# Title: m
# meshtype: rectangular
# meshunit: m
# xmin: 0
# ymin: 0
# zmin: 0
# xmax: 1.6e-07
# ymax: 1.6e-07
# zmax: 5e-09
# valuedim: 3
# valuelabels: m_x m_y m_z
# valueunits: 1 1 1
# Desc: Total simulation time:  1.4372809965647493e-11  s
# xbase: 2.5e-09
# ybase: 2.5e-09
# zbase: 2.5e-09
# xnodes: 32
# ynodes: 32
# znodes: 1
# xstepsize: 5e-09
# ystepsize: 5e-09
# zstepsize: 5e-09
# End: Header
# Begin: Data Text
-0.32427603 -0.918121 0.22781363 
-0.45317405 -0.83423936 0.31413078 
-0.75502086 -0.51776034 0.40232795 
-0.8247035 0.54994434 0.13200583 
-0.37450394 0.92715305 0.011581005 
-0.14586322 0.9892743 0.00777205 
-0.068821155 0.9976244 0.0030420588 
-0.021186206 0.9993779 -0.028198058 
0.034928873 0.99806696 -0.051403217 
0.087115064 0.9949765 -0.04932282 
0.12522297 0.9919667 -0.017926289 
0.1302941 0.9911025 0.027190518 
0.10623224 0.99265724 0.05784783 
0.07241904 0.9949798 0.06907023 
0.031235822 0.99761945 0.06148092 
-0.0068489984 0.9996177 0.026789684 
-0.008313978 0.9996141 -0.02650612 
0.021438485 0.9976697 -0.06477475 
0.03589981 0.99602103 -0.08156806 
0.01954658 0.9956291 -0.09132761 
-0.013397114 0.9954256 -0.094596215 
-0.044556357 0.9952094 -0.087023966 
-0.07300682 0.994923 -0.06927008 
-0.12283594 0.99093604 -0.054378834 
-0.19856188 0.9792665 -0.040129315 
-0.2641988 0.9641797 -0.023595108 
-0.299898 0.9535432 -0.028578866 
-0.3429611 0.93793565 -0.05152195 
-0.41641164 0.9075044 -0.055110965 
-0.47766405 0.8783161 -0.019946743 
-0.4852655 0.87353206 0.03820141 
-0.45869398 0.8850405 0.07939271 
-0.7160742 -0.6644424 0.21390186 
-0.88593143 -0.3998527 0.23503941 
-0.959325 0.24207394 0.14524378 
-0.58673364 0.8096777 -0.012872835 
-0.2526758 0.9666882 -0.040852908 
-0.08901915 0.99585205 -0.018825728 
-0.02825441 0.99958694 -0.005260189 
0.0026212407 0.9998634 -0.016325558 
0.039845232 0.99879247 -0.02874136 
0.07678695 0.9967359 -0.024927009 
0.09615465 0.99535763 -0.004173954 
0.086322114 0.9960298 0.021754466 
0.06655037 0.99716777 0.0350363 
0.059488237 0.9974458 0.03953515 
0.0461814 0.99795747 0.044140037 
0.011442709 0.99950576 0.029280087 
-0.008379153 0.9997845 -0.01899632 
0.0047671543 0.99786246 -0.065174796 
0.0168182 0.9965102 -0.0817598 
0.006921541 0.99665874 -0.08138543 
-0.018131316 0.99688977 -0.0766948 
-0.04129279 0.99699205 -0.06558803 
-0.061463676 0.99693334 -0.048436683 
-0.100585066 0.9942222 -0.03748348 
-0.1624126 0.98627484 -0.029733516 
-0.21777059 0.97583777 -0.017793568 
-0.24910608 0.9682865 -0.019169956 
-0.28566578 0.95762426 -0.036755107 
-0.3447896 0.9376797 -0.04332515 
-0.3940746 0.9188451 -0.020708755 
-0.40337032 0.91475576 0.022681965 
-0.38455364 0.9214279 0.055581413 
-0.7600031 0.6366469 -0.13067521 
-0.68513554 0.7243089 -0.07723973 
-0.4769041 0.87657636 -0.06462641 
-0.24522167 0.9668842 -0.07071957 
-0.0905694 0.9942635 -0.056897055 
-0.0010145077 0.9993806 -0.03517794 
0.04250476 0.9989881 -0.014707209 
0.058607936 0.998272 -0.0042678686 
0.07005516 0.9975348 0.004079716 
0.07608208 0.99689335 0.020374833 
0.062332213 0.9973168 0.03839212 
0.031715132 0.9984263 0.04625016 
0.01613283 0.99926007 0.03491481 
0.0335054 0.9993106 0.01599684 
0.048214886 0.9987689 0.011660356 
0.025331374 0.99962616 0.010290623 
-0.008996451 0.99980575 -0.0175361 
-0.017542066 0.9983702 -0.054308195 
-0.007881834 0.9976798 -0.06762406 
-0.0028384023 0.9979513 -0.063916445 
-0.011201956 0.99827653 -0.057607222 
-0.02411861 0.998587 -0.047352944 
-0.040226974 0.9985865 -0.03474158 
-0.072757475 0.99686205 -0.031185534 
-0.123168744 0.9918655 -0.03213032 
-0.16977218 0.98518366 -0.024303854 
-0.1966966 0.9802627 -0.019888153 
-0.22440766 0.9740531 -0.029359633 
-0.26434067 0.9637385 -0.036499254 
-0.2967855 0.95460415 -0.025481477 
-0.30655783 0.9518521 4.6136087e-05 
-0.29834297 0.95426166 0.01939535 
-0.25545257 0.9620701 -0.09573487 
-0.22421111 0.97168285 -0.07457872 
-0.1353863 0.98911923 -0.057566516 
-0.057236988 0.9974256 -0.043199815 
-0.014583052 0.99900454 -0.04215807 
0.0291899 0.99838746 -0.0486869 
0.06920855 0.9968289 -0.039272126 
0.08970131 0.99575317 -0.020723673 
0.09850499 0.9951305 0.003495083 
0.09241318 0.99489236 0.040608242 
0.057538703 0.9953151 0.07769972 
0.010134404 0.99616385 0.086919084 
-0.010299616 0.99817497 0.059503533 
0.0026484935 0.9998862 0.014853179 
0.017268078 0.99973214 -0.015410157 
0.0077613164 0.99974823 -0.021055082 
-0.017833238 0.9995166 -0.025465593 
-0.029748969 0.9988324 -0.038065523 
-0.018112404 0.9988149 -0.045174867 
-0.0015488737 0.998961 -0.045548663 
0.0029658042 0.99906224 -0.043194387 
-0.005552991 0.99928653 -0.037357524 
-0.024059996 0.999183 -0.032472286 
-0.051055167 0.9979388 -0.038880873 
-0.08775146 0.994944 -0.048849314 
-0.1238201 0.9913268 -0.044045098 
-0.148305 0.98831004 -0.035342097 
-0.17188522 0.98429257 -0.04029578 
-0.19696732 0.97912437 -0.05019333 
-0.21440534 0.97556555 -0.047982235 
-0.22387561 0.9739318 -0.03655862 
-0.22522862 0.97384185 -0.030071303 
-0.1265452 0.99127835 -0.036791023 
-0.10633549 0.99399215 -0.025931198 
-0.06519514 0.9977754 -0.013931788 
-0.04577641 0.9989226 -0.0076413034 
-0.04311711 0.998535 -0.03269489 
-0.011594754 0.99794555 -0.063009344 
0.02872419 0.9975016 -0.064541034 
0.058262024 0.9969146 -0.05260021 
0.082950756 0.996143 -0.028606158 
0.08970685 0.9958182 0.017290307 
0.06459585 0.995432 0.07030285 
0.023016207 0.99529755 0.09409015 
-0.0048021465 0.99729675 0.07332235 
-0.017709047 0.99945533 0.02784761 
-0.02372402 0.99962616 -0.013597132 
-0.022971267 0.9992456 -0.031315442 
-0.022572134 0.99920964 -0.03272203 
-0.020049324 0.9991982 -0.03465715 
-0.011080731 0.9992208 -0.037882004 
-0.0024469993 0.9992487 -0.038681965 
0.00094366306 0.9993244 -0.036741737 
-0.0074611716 0.999454 -0.032188203 
-0.025565257 0.9991953 -0.030907324 
-0.041563343 0.99821734 -0.04283322 
-0.05978818 0.99653286 -0.05785915 
-0.08170444 0.9949384 -0.05849941 
-0.10224249 0.9932022 -0.05564172 
-0.122850426 0.9902585 -0.06554311 
-0.13933302 0.9870769 -0.07915524 
-0.15044478 0.98542166 -0.0794396 
-0.1635765 0.9836181 -0.075751044 
-0.17317656 0.98169374 -0.07929342 
-0.17294535 0.9831304 -0.059537064 
-0.14933623 0.98775434 -0.045168564 
-0.11454842 0.9929293 -0.03114829 
-0.09587539 0.99486786 -0.032340858 
-0.07753068 0.99528444 -0.058291275 
-0.040423173 0.99624866 -0.07651487 
-0.0067947325 0.99733615 -0.072626196 
0.018276412 0.9978565 -0.0628363 
0.04302069 0.99811095 -0.04386072 
0.057533525 0.99831545 -0.0074924 
0.050750658 0.99788326 0.04066189 
0.02128 0.9974241 0.06850162 
-0.009654967 0.99851865 0.05354685 
-0.03077452 0.999247 0.023630353 
-0.041382648 0.9991426 -0.0012597807 
-0.033260025 0.99918026 -0.02307873 
-0.0138379885 0.9991003 -0.04008877 
0.0014921442 0.99885637 -0.04779001 
0.0022126553 0.99908143 -0.04279722 
-0.006305222 0.99945986 -0.03225478 
-0.011455273 0.999596 -0.026010778 
-0.022213345 0.9995021 -0.022408724 
-0.038876332 0.99895537 -0.024019571 
-0.045128424 0.99824846 -0.038255155 
-0.046058092 0.9974731 -0.05409273 
-0.05156015 0.9968716 -0.059905805 
-0.06415119 0.9957694 -0.065788485 
-0.08126875 0.9932251 -0.08306223 
-0.09497299 0.9905338 -0.09911093 
-0.10552657 0.9895232 -0.09852907 
-0.121023774 0.9878476 -0.09752057 
-0.13332348 0.9853696 -0.10616788 
-0.18857574 0.97561413 -0.11232246 
-0.15864268 0.9828944 -0.09354747 
-0.12329369 0.9893125 -0.077842265 
-0.089644246 0.9926922 -0.08078598 
-0.04844295 0.9950378 -0.08690902 
-0.010180939 0.99720854 -0.07397028 
0.004131112 0.99881613 -0.048470672 
-0.001431591 0.999445 -0.033280797 
-0.0036316533 0.99954 -0.03011214 
0.00768687 0.9996834 -0.02395884 
0.018277943 0.999833 0.0003134124 
0.0022799626 0.9997762 0.0210339 
-0.023887198 0.99965036 0.0113417525 
-0.0327801 0.9994582 0.0029629099 
-0.03057609 0.9995153 0.005859787 
-0.02271534 0.999697 -0.009481661 
-0.005681247 0.99919 -0.03983915 
0.011459876 0.99851644 -0.053233113 
0.0102812 0.99923325 -0.037780106 
-0.0038184247 0.9998337 -0.017832184 
-0.012878982 0.99982667 -0.013441079 
-0.024652142 0.99955297 -0.016920699 
-0.040973075 0.9988621 -0.024407487 
-0.045509174 0.9982418 -0.037977736 
-0.03888046 0.99808466 -0.048118293 
-0.03259602 0.9980516 -0.05320299 
-0.035211377 0.99727607 -0.064813174 
-0.045401245 0.9949999 -0.088960804 
-0.055407744 0.9927578 -0.10659343 
-0.06509212 0.9922718 -0.105639905 
-0.07943071 0.99086046 -0.10902493 
-0.08956017 0.9882201 -0.1240967 
-0.16384268 0.9844507 -0.06334484 
-0.10032984 0.9933858 -0.05584525 
-0.051357258 0.99756724 -0.047138564 
-0.017222133 0.99858814 -0.0502512 
0.011255882 0.998949 -0.044433296 
0.026469491 0.9994512 -0.019915298 
0.00968583 0.99987876 0.012198918 
-0.030568535 0.9994422 0.013447557 
-0.047749575 0.9987193 -0.016727244 
-0.025950532 0.9988411 -0.040534243 
-0.0013869804 0.99954337 -0.030188147 
-0.019083485 0.99973494 -0.012882891 
-0.04692222 0.9986003 -0.024408929 
-0.033997666 0.99909544 -0.025543565 
-0.008772891 0.9999601 -0.0016981658 
-0.00825976 0.9999652 -0.0011880882 
-0.010423986 0.99944526 -0.031630706 
0.0040200036 0.9989406 -0.04584435 
0.012048959 0.9996322 -0.02430013 
0.0034225162 0.99999297 -0.0015355597 
-0.0055243224 0.9999819 -0.0024104533 
-0.014709047 0.9997595 -0.016269919 
-0.026972696 0.9990896 -0.03305341 
-0.03065171 0.9985091 -0.045168154 
-0.020361055 0.9988175 -0.044147726 
-0.0038334471 0.9991507 -0.041027054 
0.005269361 0.99857754 -0.05305886 
0.003011859 0.99657845 -0.08259741 
-0.004292306 0.9943742 -0.10583751 
-0.013997884 0.99349713 -0.11299431 
-0.025079353 0.99148947 -0.12774922 
-0.030360578 0.9879698 -0.15163758 
-0.24821252 0.95951855 0.13309695 
-0.091266274 0.9937908 0.06364328 
0.012950514 0.99977297 0.016920177 
0.059212413 0.9982402 -0.0032439532 
0.07017191 0.9974734 0.011081594 
0.052945595 0.99757355 0.04520861 
0.0017411695 0.99705184 0.07671076 
-0.06541157 0.99610037 0.059206262 
-0.08792342 0.99612606 -0.0015875328 
-0.056238167 0.9972109 -0.04906779 
-0.025381176 0.9982278 -0.053824063 
-0.04071875 0.99816895 -0.04473075 
-0.059209634 0.99681425 -0.053437807 
-0.027186116 0.99849826 -0.047562275 
0.0115910815 0.9998317 -0.014229725 
0.0031428088 0.9999951 -6.490286e-05 
-0.017702341 0.99963796 -0.020264592 
-0.009009292 0.99949485 -0.03047839 
0.005307356 0.99994916 -0.008582331 
0.0022466409 0.99992794 0.011798484 
-0.0030168837 0.99998486 0.0046144915 
-0.003217119 0.9998018 -0.019644616 
-0.0039071334 0.99903774 -0.04368484 
-0.00016368939 0.9987476 -0.050033234 
0.016966755 0.9992272 -0.03545633 
0.041439667 0.99883294 -0.0248094 
0.05475468 0.9977684 -0.038213134 
0.050696112 0.99601614 -0.07336116 
0.037859138 0.99382514 -0.1042996 
0.024165684 0.99235994 -0.12098749 
0.01554645 0.989464 -0.14394246 
0.014583914 0.98514843 -0.17108497 
-0.45161548 0.7754573 0.44125903 
-0.120848276 0.9664984 0.2264434 
0.068172276 0.99513555 0.07111825 
0.13003558 0.9912687 0.021843294 
0.1287185 0.9904952 0.04848533 
0.07523913 0.9925361 0.09597419 
-0.008337126 0.99316335 0.11643574 
-0.08916021 0.99254775 0.083062656 
-0.11756215 0.9930368 0.007556057 
-0.088761196 0.99436 -0.058049288 
-0.053335503 0.9952779 -0.08110023 
-0.05081892 0.9959824 -0.0737326 
-0.05221187 0.99664015 -0.06310697 
-0.017838007 0.99871576 -0.0474193 
0.016017623 0.9996784 -0.019663 
0.0009128275 0.9999981 -0.0017502191 
-0.028479384 0.9995648 -0.0076939086 
-0.023642158 0.99965906 -0.01108076 
-0.005477211 0.99997354 0.0048088552 
-0.0026044757 0.99987984 0.015284399 
-0.0019259106 0.99999815 0.00034210592 
0.0065116826 0.99961495 -0.026975485 
0.015976328 0.99880797 -0.04612516 
0.028835211 0.9986635 -0.04289298 
0.05147569 0.9983506 -0.025425583 
0.07183764 0.9972422 -0.01863622 
0.07224891 0.99685854 -0.032455057 
0.05271843 0.9966322 -0.06281012 
0.028322501 0.99564934 -0.088770725 
0.011530323 0.99471694 -0.10200612 
0.006645848 0.9928221 -0.119416095 
0.009879979 0.99015063 -0.13965744 
-0.5961324 -0.5231543 0.609045 
-0.36028433 0.6826458 0.6357594 
-0.06392179 0.9623629 0.26414332 
0.02199121 0.9939832 0.10730288 
0.038047638 0.9968564 0.06949756 
0.009355108 0.9973639 0.07195648 
-0.03257269 0.9973742 0.06468336 
-0.07282392 0.9961679 0.048437685 
-0.100798324 0.9948783 0.0075395107 
-0.098250605 0.9940515 -0.046994805 
-0.07907229 0.9937161 -0.07922135 
-0.063405596 0.9950434 -0.07660649 
-0.044918813 0.9974472 -0.055512354 
-0.014361782 0.99916387 -0.038279656 
0.004399469 0.9997169 -0.02338481 
-0.015373162 0.99986005 -0.006600897 
-0.041591827 0.9991347 0.00019748512 
-0.032946743 0.999457 0.000662222 
-0.009716724 0.99993515 0.0059508467 
-5.814294e-05 0.9999798 0.0063705877 
0.007007231 0.9999381 -0.008647248 
0.019774787 0.99944556 -0.026789596 
0.032139752 0.99887854 -0.034766812 
0.047003616 0.99839664 -0.03154084 
0.06355677 0.99757177 -0.028480519 
0.06621458 0.99733174 -0.030743923 
0.047661327 0.9982646 -0.0345873 
0.015057603 0.9989711 -0.0427792 
-0.012448192 0.9987471 -0.048470747 
-0.023581004 0.99852103 -0.04898634 
-0.020786937 0.99836427 -0.053261686 
-0.012891138 0.99799645 -0.061944395 
-0.34939137 -0.82337666 0.44718748 
-0.5402621 0.20034118 0.8173007 
-0.2808622 0.8841994 0.3732398 
-0.14601225 0.98169595 0.12228533 
-0.07785114 0.9966601 0.024656834 
-0.044296473 0.99893373 -0.0130131245 
-0.013690341 0.9997208 -0.019263571 
-0.014545182 0.9996754 0.02091934 
-0.069309354 0.9970404 0.033266123 
-0.11692227 0.99303293 -0.014655187 
-0.11560767 0.99098814 -0.06765727 
-0.073101826 0.9944845 -0.07521275 
-0.02995425 0.9986513 -0.04240717 
-0.0132969655 0.99967134 -0.021918371 
-0.017753696 0.999585 -0.022689816 
-0.036184214 0.99923897 -0.014573677 
-0.047108855 0.998887 -0.0023453778 
-0.030237563 0.99954134 -0.0017100415 
-0.0035337552 0.99997646 -0.0058756894 
0.013100794 0.9998699 -0.009415275 
0.027872514 0.99949324 -0.0153809255 
0.042066596 0.9989064 -0.020406622 
0.048027065 0.99852115 -0.025475128 
0.051482882 0.99809337 -0.03404644 
0.051906455 0.99764866 -0.044754807 
0.04012161 0.9981599 -0.04546601 
0.015744155 0.99935704 -0.03221399 
-0.013063986 0.9997592 -0.017633623 
-0.0274036 0.99956346 -0.011043929 
-0.027241731 0.99958664 -0.00919664 
-0.021239934 0.9997553 -0.0061738305 
-0.016284088 0.9998452 -0.006663837 
-0.10984402 -0.8760809 0.4694855 
-0.26121014 -0.06919513 0.9627987 
-0.28057325 0.864252 0.4175491 
-0.18321286 0.97987175 0.07927441 
-0.08664877 0.9953102 -0.043009277 
-0.016809307 0.9970771 -0.07453112 
0.03565017 0.99793494 -0.05343116 
0.03017706 0.999323 0.021047417 
-0.055577785 0.9971191 0.051619437 
-0.13285694 0.99113303 -0.0020800536 
-0.13015878 0.98948765 -0.06303103 
-0.06921629 0.9957358 -0.06098642 
-0.024874188 0.99954236 -0.01721664 
-0.02474923 0.9996835 -0.0045123114 
-0.037698977 0.9990034 -0.023893839 
-0.044558067 0.99867713 -0.025666231 
-0.03956109 0.9991411 -0.012329118 
-0.016724499 0.9997678 -0.013588958 
0.012064783 0.99962753 -0.024481168 
0.0335805 0.9990684 -0.02710689 
0.051492814 0.99846065 -0.020613018 
0.06023785 0.99807185 -0.014970048 
0.053734425 0.9983156 -0.021881504 
0.0439578 0.9983038 -0.038176607 
0.036152527 0.99801564 -0.051555056 
0.025238898 0.99850607 -0.04846252 
0.007621668 0.99963635 -0.025869984 
-0.0049799816 0.9999829 -0.0030623688 
-0.0019148174 0.99998254 -0.0055891005 
-0.00033243417 0.9998506 -0.017283637 
-0.004451052 0.99979585 -0.019711701 
-0.012324389 0.99970096 -0.02112403 
0.13982594 -0.8711164 0.4707494 
0.16895561 -0.2186067 0.96107507 
-0.07384487 0.88789195 0.4540869 
-0.0777411 0.99329334 0.0855851 
-0.017189912 0.9992684 -0.03416478 
0.030341957 0.9978464 -0.05815503 
0.06424571 0.99724877 -0.036980648 
0.048820496 0.9983648 0.029737625 
-0.04338126 0.9974978 0.0558244 
-0.12373862 0.99230623 0.0041427417 
-0.12194065 0.9915632 -0.04396437 
-0.071202755 0.9968747 -0.03421981 
-0.034766566 0.99938893 -0.0036165207 
-0.030426921 0.9994903 -0.009668896 
-0.03423542 0.9986123 -0.040020596 
-0.031068021 0.998614 -0.04248405 
-0.02042219 0.9995415 -0.022355782 
-0.00025738595 0.9998213 -0.018901568 
0.023537697 0.9992764 -0.029879024 
0.043214817 0.9986166 -0.02995916 
0.057717986 0.9981898 -0.016902765 
0.05851661 0.9982418 -0.009442662 
0.04648194 0.99872553 -0.01966836 
0.038212836 0.99858636 -0.036947977 
0.03865096 0.9980022 -0.049978018 
0.036354873 0.99819565 -0.047788817 
0.026655996 0.99937683 -0.023139823 
0.028877623 0.9995362 -0.009665663 
0.03248738 0.99874914 -0.0380107 
0.014412921 0.99778587 -0.06492765 
-0.013211649 0.9970905 -0.07507392 
-0.039127205 0.9959793 -0.080587395 
0.39310458 -0.6423583 0.6579093 
0.39191017 0.14321394 0.9087884 
0.10021103 0.917604 0.3846566 
0.021465184 0.99624676 0.08385609 
0.035680626 0.9992695 -0.013689561 
0.057337105 0.99773645 -0.035135146 
0.08150902 0.9963794 -0.024177508 
0.07001991 0.9970575 0.031204222 
-0.018094629 0.9981516 0.05801763 
-0.10003991 0.9948483 0.016397446 
-0.10985108 0.99364215 -0.024658985 
-0.071142115 0.99701387 -0.03003644 
-0.025459943 0.99936837 -0.024796177 
-0.002740464 0.99924725 -0.03869706 
-0.0023156016 0.998234 -0.059359897 
-0.00647086 0.9989247 -0.04591096 
-0.006101477 0.9999317 -0.009976331 
0.0019269921 0.9999956 0.0022578095 
0.016146105 0.99982095 -0.009874178 
0.031519666 0.99937797 -0.015821213 
0.04104613 0.99911064 -0.009650985 
0.0381695 0.99923086 -0.0089857625 
0.03240321 0.9992823 -0.019622553 
0.040497113 0.9986774 -0.03168002 
0.0588855 0.9972646 -0.044674113 
0.064438835 0.99673784 -0.04859494 
0.058674768 0.99771506 -0.033497162 
0.06171905 0.99718255 -0.04263537 
0.04043848 0.99574095 -0.082853585 
-0.00797143 0.9954934 -0.09449533 
-0.056247886 0.9938345 -0.09554652 
-0.09259854 0.9906563 -0.100127645 
0.52777547 0.53684664 0.65821636 
0.34949976 0.8155694 0.46119043 
0.15749289 0.9734482 0.16611627 
0.08801137 0.9958726 0.022175502 
0.08254487 0.996317 -0.023209145 
0.09047707 0.9955182 -0.02752348 
0.10856076 0.99400055 -0.0133253485 
0.09335114 0.9948795 0.03873461 
0.006215274 0.9979692 0.06339397 
-0.071569726 0.9971294 0.024716789 
-0.08227102 0.99640435 -0.020246211 
-0.041329656 0.99817306 -0.044074357 
0.015683698 0.99843556 -0.053669676 
0.040794913 0.99720675 -0.06256735 
0.025829174 0.99755913 -0.06487387 
0.0027089815 0.9994841 -0.032003075 
-0.012003881 0.99980086 0.015947197 
-0.01725377 0.9994566 0.028090218 
-0.009059795 0.9999331 0.0071867094 
0.008742501 0.9999268 -0.008364743 
0.02004847 0.9997602 -0.00881076 
0.018689444 0.9997939 -0.007934289 
0.02335427 0.9996886 -0.008787154 
0.05229633 0.9985273 -0.014441591 
0.08768958 0.99538004 -0.039104257 
0.09196058 0.9936894 -0.06422434 
0.077991456 0.994669 -0.06746047 
0.06542521 0.9940564 -0.08701405 
0.017835202 0.9946356 -0.10189201 
-0.03443826 0.9968809 -0.07101146 
-0.07228762 0.9961241 -0.050114572 
-0.09713407 0.99413073 -0.04763539 
0.2852122 0.93851584 0.19453025 
0.2235204 0.9694026 0.10147601 
0.16106145 0.98689455 0.00992166 
0.12307335 0.9919302 -0.03045737 
0.115078196 0.99281037 -0.032933626 
0.11578117 0.99308884 -0.019217681 
0.12443733 0.99222296 0.0029968475 
0.099905364 0.9935683 0.053302124 
0.017271927 0.9971369 0.07361881 
-0.04742124 0.9982851 0.034323633 
-0.048972018 0.9986692 -0.016171632 
-0.002376431 0.99865675 -0.051759265 
0.055171102 0.99614185 -0.06824622 
0.06844867 0.9950569 -0.07194805 
0.033886068 0.9974564 -0.06271029 
-0.004639825 0.9997092 -0.023665577 
-0.029829409 0.9993544 0.020024763 
-0.041272026 0.99886924 0.023602197 
-0.02950638 0.9995645 -0.00044562688 
-0.002717311 0.99989796 -0.014030885 
0.0118413605 0.9998544 -0.012295377 
0.009217207 0.99994737 -0.004525654 
0.020089285 0.9997739 0.0069713932 
0.06512385 0.9978751 0.0020427818 
0.10664587 0.9933975 -0.04228632 
0.09408445 0.99179167 -0.08658756 
0.060993772 0.99382216 -0.09272163 
0.037632085 0.9943836 -0.09891992 
-0.00066285254 0.99696976 -0.07778867 
-0.011746213 0.9998443 -0.0131729245 
0.0025292996 0.9993102 0.037053093 
0.017023573 0.99805725 0.05993346 
0.16629267 0.98601526 -0.010989645 
0.16223219 0.9860447 -0.03737151 
0.15007445 0.9874916 -0.04835489 
0.13139819 0.990469 -0.04130174 
0.123972185 0.9921549 -0.016111013 
0.11364339 0.9934723 0.009908916 
0.103667825 0.99406457 0.03299512 
0.06640006 0.995414 0.06886242 
-0.003554212 0.99732023 0.07307375 
-0.042892385 0.99862367 0.030185636 
-0.026028853 0.99951863 -0.016881585 
0.026174033 0.9984488 -0.04914337 
0.07668706 0.9950118 -0.0638015 
0.07516506 0.9949666 -0.06626918 
0.028721469 0.99775934 -0.060427815 
-0.012124596 0.99938786 -0.03281778 
-0.035349656 0.9993724 -0.0022692939 
-0.04403229 0.9990251 -0.0031805008 
-0.028807659 0.9993864 -0.019923443 
-0.0018701553 0.9996835 -0.025086721 
0.008027966 0.99975866 -0.020450806 
0.0008304655 0.9999731 -0.007293939 
0.015017375 0.9997848 0.014315704 
0.07109217 0.9973844 0.013045331 
0.11458487 0.99267566 -0.038281504 
0.086023815 0.992573 -0.086016744 
0.040342096 0.9957921 -0.08228425 
0.030621303 0.9969362 -0.07197634 
0.04425935 0.99836075 -0.036289573 
0.12228898 0.99131435 0.048388172 
0.28133875 0.9460025 0.16102089 
0.40930152 0.8849312 0.22219175 
0.14208011 0.9885352 -0.05110164 
0.14436698 0.9885113 -0.04476297 
0.12966664 0.99134576 -0.020498049 
0.10401188 0.99453396 0.009155011 
0.07846456 0.9960844 0.040733527 
0.05138652 0.997387 0.050781798 
0.033377383 0.99830294 0.047720604 
0.0055108042 0.9985252 0.054011177 
-0.033579364 0.998506 0.043106806 
-0.04112979 0.9991286 0.0070985816 
-0.00870949 0.9997119 -0.022368696 
0.041047253 0.9983684 -0.039694805 
0.07666982 0.99592984 -0.04738767 
0.060033716 0.99681175 -0.052557178 
0.013776348 0.99815106 -0.05920218 
-0.012983978 0.9988387 -0.046396423 
-0.02298659 0.9994497 -0.023916978 
-0.02569927 0.99941933 -0.022374589 
-0.013818989 0.99942565 -0.030940646 
0.0019320195 0.9994347 -0.03356424 
0.0009970563 0.99945736 -0.032923892 
-0.011655481 0.99973565 -0.019820742 
0.004393705 0.99992955 0.0110284295 
0.071270466 0.99721074 0.022166822 
0.12410046 0.99195886 -0.024833139 
0.08945376 0.99322206 -0.07421639 
0.038282588 0.99711317 -0.06557328 
0.053706955 0.9973286 -0.049509916 
0.13026792 0.99140877 -0.011786122 
0.34260723 0.9324048 0.11507275 
0.8296137 0.4406431 0.342892 
0.9542279 -0.20399243 0.21871525 
0.11905889 0.99282664 0.010976677 
0.10258072 0.99439687 0.025537623 
0.06413573 0.99677366 0.048260074 
0.024009774 0.9975106 0.06630392 
-0.007696899 0.99737656 0.071978934 
-0.02290649 0.99829906 0.053612176 
-0.022218755 0.9991484 0.03476884 
-0.029739443 0.9990634 0.031431396 
-0.043479294 0.99890894 0.01704819 
-0.029414203 0.9995105 -0.010654415 
0.008912586 0.9996968 -0.022954885 
0.047104668 0.9985756 -0.025057383 
0.060651693 0.9977906 -0.027120115 
0.029851181 0.99875546 -0.039957803 
-0.0067603886 0.99812245 -0.06087605 
-0.012337149 0.99834913 -0.05609719 
-0.007050101 0.999449 -0.03243521 
-0.0036307722 0.99967253 -0.025332 
0.0016894876 0.9994953 -0.03172452 
0.0011899995 0.99920934 -0.03974154 
-0.013797984 0.99883556 -0.046229925 
-0.03332099 0.99881995 -0.03533242 
-0.018554565 0.9998266 0.0016188303 
0.055124797 0.9980961 0.027664866 
0.12343817 0.99232984 -0.0066847373 
0.100194186 0.99329644 -0.05764909 
0.04907527 0.99733347 -0.054015562 
0.067557 0.99729186 -0.029070042 
0.15371655 0.9872303 0.04180336 
0.37338126 0.8803383 0.29255956 
0.4585222 -0.7120782 0.5316973 
0.36654118 -0.90838903 0.20118871 
0.035619576 0.99729735 0.064259015 
0.010192574 0.99760014 0.068484314 
-0.0279287 0.9971098 0.07065526 
-0.054420546 0.99619997 0.06800039 
-0.06374515 0.9963649 0.056512855 
-0.054781836 0.99772274 0.039350837 
-0.04457726 0.9984391 0.033651058 
-0.04759989 0.9983425 0.032349315 
-0.047237642 0.99881124 0.0120316185 
-0.019917758 0.99972135 -0.012671764 
0.014988943 0.9997817 -0.014553413 
0.036490355 0.99926585 -0.01167207 
0.0325478 0.99931604 -0.017551554 
-0.00046494347 0.99916035 -0.04096694 
-0.019236464 0.9973891 -0.069606185 
-0.007226559 0.9979959 -0.062866144 
0.0054873037 0.9994345 -0.033176582 
0.01241383 0.99968797 -0.021679142 
0.01378639 0.9994729 -0.029390097 
-0.0011405912 0.9990474 -0.04362333 
-0.03355959 0.9978996 -0.055409737 
-0.06620365 0.996652 -0.04797946 
-0.05985392 0.998169 -0.008731878 
0.015124085 0.99931556 0.033758562 
0.10656314 0.99416244 0.016893592 
0.11273248 0.9927914 -0.040702473 
0.061891135 0.99680054 -0.050578963 
0.052608803 0.99854344 -0.011975414 
0.07174809 0.99301493 0.09366791 
0.074714445 0.90428966 0.42033073 
-0.19649355 -0.75839734 0.62146914 
-0.0997775 -0.95774585 0.26975432 
-0.037350707 0.9976743 0.057018436 
-0.057011995 0.9970377 0.0516291 
-0.078129426 0.9960761 0.04157077 
-0.08437831 0.9958925 0.032839365 
-0.077035844 0.9967391 0.024013171 
-0.0632201 0.99772966 0.023214875 
-0.05901417 0.99777853 0.030910067 
-0.058744054 0.9977805 0.031357076 
-0.046627834 0.99882406 0.013283082 
-0.019852867 0.9997989 -0.0028238865 
-0.0010297971 0.99999803 -0.0017184562 
0.0075341947 0.99995667 -0.005470911 
0.0032530755 0.9997992 -0.01977672 
-0.015246564 0.9986794 -0.04906284 
-0.014868185 0.9970444 -0.07537586 
0.0019572729 0.9980504 -0.06238258 
0.011698576 0.999483 -0.02994859 
0.02146239 0.9996293 -0.016751446 
0.023582138 0.9994305 -0.024138607 
-0.0025588775 0.9991905 -0.040146768 
-0.052412048 0.9971484 -0.054296263 
-0.097937286 0.9938377 -0.05191306 
-0.10358221 0.99447495 -0.017038405 
-0.043336626 0.9984219 0.035717037 
0.056193057 0.99744695 0.044069152 
0.104525164 0.9945142 -0.0039979587 
0.0843458 0.99606746 -0.027118295 
0.06782242 0.9976924 0.003156803 
0.04485556 0.99495727 0.08971053 
-0.0690423 0.93252456 0.3544449 
-0.4860575 0.061885662 0.8717329 
-0.41282815 -0.6707815 0.61613727 
-0.033973407 0.99879396 0.03544653 
-0.04748628 0.99856216 0.024873609 
-0.058801927 0.9982229 0.009665996 
-0.060093038 0.99819225 -0.0011161872 
-0.053266298 0.99855417 -0.007230246 
-0.04765688 0.99886376 0.00026777457 
-0.049240954 0.9986841 0.014332351 
-0.047846276 0.9985269 0.025592962 
-0.041972715 0.99887043 0.02227771 
-0.035414588 0.9992565 0.015241973 
-0.035663303 0.9993047 0.010876855 
-0.027997121 0.99960387 -0.0028878727 
-0.019187478 0.9996196 -0.019813849 
-0.018344024 0.9988265 -0.044824302 
-0.0057837334 0.9979656 -0.06349384 
0.007103745 0.99874157 -0.049647342 
0.0113427425 0.99969137 -0.022104876 
0.024611903 0.9996644 -0.008086647 
0.029435415 0.9995041 -0.011185225 
-0.004314495 0.9996335 -0.026728043 
-0.064977765 0.996884 -0.044724602 
-0.11415341 0.99221873 -0.049710944 
-0.12855366 0.99138117 -0.025246073 
-0.094590984 0.99517554 0.026043778 
-0.008952974 0.9982905 0.05775754 
0.070180185 0.9968419 0.03716241 
0.09146541 0.9956398 0.018318372 
0.09233678 0.9948224 0.042455304 
0.083150275 0.99154687 0.09960322 
0.020105774 0.96736866 0.2525742 
-0.1838682 0.768183 0.61325973 
-0.368253 0.33467788 0.8673988 
0.0039374726 0.99966085 0.025744656 
-0.0062512048 0.9998813 0.014079763 
-0.014848828 0.9998882 -0.0017863126 
-0.018199166 0.99971837 -0.015229751 
-0.015971484 0.9995951 -0.02354756 
-0.018219408 0.99965745 -0.018791797 
-0.023811456 0.99970645 -0.0044801263 
-0.031107178 0.99939656 0.015453893 
-0.04220578 0.9988997 0.020449273 
-0.054409586 0.9983588 0.017869301 
-0.06270103 0.99795586 0.0123574305 
-0.049567927 0.99876523 0.0033166748 
-0.034289796 0.9994068 -0.0032280544 
-0.024897868 0.9994544 -0.02170716 
-0.005884607 0.9992465 -0.038365204 
0.005478914 0.99945295 -0.03261599 
0.009364007 0.9998344 -0.015610578 
0.02468638 0.99969465 0.0011527132 
0.026701007 0.9996118 0.007967342 
-0.013527889 0.9998967 -0.0048796954 
-0.07436502 0.9968144 -0.028826494 
-0.115114495 0.99241114 -0.043228857 
-0.12931125 0.99103516 -0.03358773 
-0.11590684 0.99325234 0.0039309207 
-0.05375667 0.9974722 0.046469394 
0.027647324 0.9980526 0.05591595 
0.0668374 0.9963871 0.05239842 
0.07751659 0.99399567 0.07722581 
0.087513655 0.9890053 0.1192054 
0.078964256 0.97774637 0.1943626 
0.026282333 0.935791 0.3515744 
-0.03878441 0.85060054 0.5243801 
0.02530925 0.9995159 0.0180948 
0.018279174 0.99979955 0.00817211 
0.01337537 0.99989873 -0.0048709023 
0.013014095 0.99974084 -0.018677268 
0.016121594 0.9994399 -0.02932819 
0.012628536 0.9994153 -0.03177368 
0.0061949585 0.9997557 -0.02121948 
-0.008003272 0.99996686 -0.0015251195 
-0.027991349 0.9995842 0.006933805 
-0.05115654 0.9986057 0.013024709 
-0.066047065 0.99766266 0.01752284 
-0.0600213 0.997933 0.022965413 
-0.05468463 0.99823874 0.023001669 
-0.043524683 0.9990486 0.0027377657 
-0.018582977 0.9996776 -0.01730377 
-0.0045592454 0.99969465 -0.024288615 
0.0031644343 0.9998301 -0.01815944 
0.016497947 0.99984837 0.005584093 
0.011169564 0.9995906 0.026342554 
-0.029290909 0.9993991 0.018535353 
-0.07956805 0.9967826 -0.009670034 
-0.10751881 0.9936744 -0.032419484 
-0.11567357 0.9925966 -0.037036102 
-0.10493901 0.994362 -0.015233653 
-0.053125918 0.9982503 0.025962876 
0.015596605 0.9987662 0.047148176 
0.03981193 0.9981887 0.04510384 
0.02547224 0.99775237 0.061978243 
0.016833127 0.9944135 0.104204535 
0.020780187 0.9864381 0.1628134 
0.022961147 0.9689526 0.24617851 
0.022154875 0.9422847 0.33407876 
0.04609911 0.9986489 0.023983167 
0.040419623 0.99907464 0.014700051 
0.037475225 0.9992944 0.0025327757 
0.040368542 0.9991156 -0.011773012 
0.044243116 0.99873596 -0.023853187 
0.0406024 0.99870396 -0.030692967 
0.033588886 0.99918985 -0.022169068 
0.019662999 0.99979466 -0.0048954347 
0.0005928204 0.9999637 0.008508884 
-0.028962543 0.99930435 0.02349619 
-0.05300676 0.9979501 0.03586231 
-0.061916724 0.9969592 0.047315076 
-0.066793606 0.9968184 0.04349213 
-0.053107798 0.9983793 0.020458609 
-0.02911175 0.9995761 0.00025391602 
-0.019865122 0.99968046 -0.015631935 
-0.016489986 0.9997025 -0.017977247 
-0.012817644 0.99989414 0.0068848673 
-0.021385215 0.9992561 0.03209244 
-0.044925474 0.99863386 0.026687311 
-0.06856738 0.9976464 -0.00045243054 
-0.07827195 0.9966442 -0.023956072 
-0.07816303 0.99628395 -0.036177162 