# OOMMF OVF 2.0
# Segment count: 1
# Begin: Segment
# Begin: Header
# Title: m
# meshtype: rectangular
# meshunit: m
# xmin: 0
# ymin: 0
# zmin: 0
# xmax: 1.6e-07
# ymax: 1.6e-07
# zmax: 5e-09
# valuedim: 3
# valuelabels: m_x m_y m_z
# valueunits: 1 1 1
# Desc: Total simulation time:  6.425016380875237e-11  s
# xbase: 2.5e-09
# ybase: 2.5e-09
# zbase: 2.5e-09
# xnodes: 32
# ynodes: 32
# znodes: 1
# xstepsize: 5e-09
# ystepsize: 5e-09
# zstepsize: 5e-09
# End: Header
# Begin: Data Text
-0.2518975 -0.8000291 0.5445192 
-0.47300977 -0.40691984 0.78145903 
-0.56736225 0.53157854 0.6289073 
-0.35446826 0.9148391 0.1934468 
-0.15752777 0.9871619 -0.026391305 
-0.019558659 0.995985 -0.08735807 
0.06685314 0.99539244 -0.06873614 
0.11787918 0.99286187 -0.01816309 
0.1412279 0.9898084 0.01827854 
0.15505399 0.9875454 0.026694896 
0.16433094 0.98549706 0.04232063 
0.15132383 0.9851587 0.08101587 
0.10864858 0.98568803 0.12889773 
0.051660754 0.9862849 0.15675876 
0.0052834908 0.98886025 0.1487537 
-0.008247218 0.99413896 0.10779537 
0.015669666 0.99828935 0.05632892 
0.05267294 0.9984344 0.018826662 
0.07511678 0.9971521 -0.0067310776 
0.07478104 0.9970214 -0.018872995 
0.06876936 0.99715024 -0.031020265 
0.06742611 0.99559844 -0.06509593 
0.0671421 0.99140066 -0.11232414 
0.07104551 0.98731184 -0.14201371 
0.082201436 0.9854043 -0.14906795 
0.09643729 0.9797107 -0.1756897 
0.10003857 0.97242725 -0.21065994 
0.080107145 0.9757377 -0.20376153 
0.042151254 0.9848069 -0.16845967 
-0.004060674 0.98686075 -0.16152209 
-0.059668597 0.9777426 -0.2011447 
-0.10732458 0.9632163 -0.24636541 
-0.36517262 -0.3953105 0.84283966 
-0.51735187 0.15532047 0.84155965 
-0.46764192 0.7358772 0.48968962 
-0.3100768 0.9394147 0.14612472 
-0.1624033 0.986268 -0.030011337 
-0.05091881 0.9955668 -0.079083145 
0.023238456 0.9976612 -0.06428135 
0.07393392 0.996861 -0.028319072 
0.10034428 0.9949519 0.001292963 
0.11250066 0.99357903 0.0120188035 
0.1251517 0.9918383 0.024368681 
0.12231798 0.99099505 0.05447293 
0.09093251 0.99164975 0.0914441 
0.04918393 0.9922223 0.1143503 
0.017788129 0.99343127 0.11303909 
0.009718399 0.99581915 0.09082816 
0.026105527 0.9978849 0.05953388 
0.04502444 0.99868745 0.024419524 
0.053995762 0.9984734 -0.011634895 
0.058204677 0.99771273 -0.034374 
0.0602038 0.99706316 -0.047335103 
0.05980043 0.9958493 -0.06861541 
0.0569298 0.993308 -0.10049055 
0.056956176 0.9913573 -0.118181586 
0.064427495 0.99086404 -0.11848032 
0.074361056 0.9878849 -0.13621302 
0.07923081 0.9835342 -0.16242868 
0.06745642 0.9848936 -0.15948099 
0.03836982 0.9901389 -0.13473256 
-0.001791706 0.9915552 -0.12967373 
-0.048740257 0.9863273 -0.15742613 
-0.084435776 0.97798973 -0.19080588 
-0.50969994 0.7896703 0.3415069 
-0.43881962 0.8438628 0.30876034 
-0.34328157 0.9203844 0.1872174 
-0.24620534 0.9684451 0.03869291 
-0.15015589 0.9869258 -0.05857271 
-0.07623523 0.99387187 -0.0800428 
-0.031577736 0.9974656 -0.06375922 
0.0074389004 0.9987866 -0.048683245 
0.04205736 0.99861455 -0.031627186 
0.06573904 0.9977076 -0.016064698 
0.089838594 0.9959555 -0.0013508092 
0.100684814 0.99454343 0.027312573 
0.08368198 0.99460864 0.06124565 
0.055939693 0.99508613 0.081697345 
0.035196032 0.9959191 0.08310452 
0.027424073 0.9970565 0.07159859 
0.026547432 0.9983617 0.050686866 
0.019414224 0.9996908 0.015541123 
0.016291011 0.99962485 -0.022016972 
0.028209861 0.99862796 -0.044117663 
0.042193044 0.997831 -0.050528575 
0.051789593 0.9970132 -0.05729309 
0.055236563 0.995837 -0.072510555 
0.057996884 0.995284 -0.07775708 
0.062388472 0.9951255 -0.07637472 
0.06447701 0.9938089 -0.09048033 
0.06679288 0.99126315 -0.11373728 
0.06155474 0.99085057 -0.12010987 
0.04319397 0.9930497 -0.10948336 
0.011004852 0.9944041 -0.10506931 
-0.026236545 0.99297756 -0.115356825 
-0.052473187 0.99007344 -0.1303884 
-0.21000856 0.9768489 0.040776182 
-0.20569563 0.97727925 0.051133323 
-0.19253123 0.9808124 0.030643744 
-0.15565753 0.9873732 -0.029410511 
-0.10347893 0.9911613 -0.08301519 
-0.060144804 0.99422693 -0.08885601 
-0.04157307 0.9970681 -0.06424213 
-0.023576584 0.9982372 -0.05446719 
0.008923905 0.99891037 -0.045809895 
0.038997397 0.9988796 -0.02681207 
0.063315436 0.99797773 -0.0056303483 
0.07504545 0.9967772 0.028345775 
0.06710278 0.99597204 0.059472818 
0.053924028 0.9963938 0.06551118 
0.044482436 0.9975705 0.05361321 
0.033199605 0.9987782 0.03660495 
0.010564371 0.9997616 0.019112024 
-0.018623104 0.99982595 -0.0010910234 
-0.027413405 0.99938196 -0.022006107 
-0.0043762927 0.9993005 -0.037140645 
0.03221018 0.99877274 -0.03762412 
0.06165365 0.99751544 -0.034084864 
0.0740152 0.99662745 -0.035434574 
0.07970062 0.99622905 -0.03428774 
0.077339195 0.9962474 -0.038858633 
0.06744088 0.99611926 -0.056552324 
0.061736856 0.9946147 -0.08324744 
0.059460107 0.99319327 -0.10015819 
0.050396726 0.99329364 -0.10405769 
0.026327567 0.9944855 -0.10151665 
-0.00032196392 0.99536425 -0.09617635 
-0.017274834 0.9955706 -0.0924169 
-0.03038088 0.999411 0.01596197 
-0.050543435 0.9985641 0.017747007 
-0.075764425 0.9971204 0.0032809996 
-0.07611062 0.99631435 -0.0395577 
-0.0511386 0.99501073 -0.085665986 
-0.018051153 0.9951743 -0.09644819 
-0.0010297151 0.9978564 -0.065434225 
-0.00048271884 0.9991854 -0.040355213 
0.008701622 0.9995052 -0.030226484 
0.02573081 0.9995145 -0.017571885 
0.04420962 0.9990215 0.0012463701 
0.057456233 0.99761105 0.038353384 
0.05555642 0.9963165 0.06532151 
0.046022173 0.9974435 0.054666765 
0.03198213 0.9990806 0.02855007 
0.0075417575 0.99993074 0.0090400325 
-0.025905069 0.9996583 0.0035092756 
-0.04936112 0.99877113 0.0044371337 
-0.043464564 0.9990397 -0.005539516 
-0.004198249 0.99967384 -0.025189385 
0.051277142 0.9980385 -0.035916425 
0.08796843 0.9954475 -0.036686078 
0.097334795 0.9947939 -0.030185224 
0.09601093 0.9951146 -0.022997411 
0.080752976 0.99635375 -0.027536128 
0.056437876 0.99739015 -0.04502948 
0.039180797 0.9966979 -0.07112114 
0.037994843 0.9948238 -0.09424504 
0.036398143 0.99319094 -0.11066619 
0.020193977 0.9935043 -0.11198914 
0.0016210512 0.9953107 -0.09671613 
-0.009036016 0.9968472 -0.0788293 
0.052141707 0.99617827 0.07007283 
0.025910953 0.9983555 0.051137622 
-0.009080011 0.99978554 0.018611925 
-0.024678707 0.99940974 -0.023901936 
-0.012523459 0.9977491 -0.06587896 
0.022141976 0.99622273 -0.08396573 
0.051069632 0.9971681 -0.055205863 
0.04207494 0.9990116 -0.0143368775 
0.018238101 0.9998302 0.0026555364 
0.0100141615 0.9999479 0.0020178473 
0.026742816 0.999628 0.005364455 
0.049189307 0.9981843 0.034763664 
0.046903215 0.9973983 0.054742653 
0.021505546 0.99899197 0.039404094 
-0.0126982555 0.99971515 0.020211894 
-0.043096147 0.9989218 0.017261464 
-0.057501875 0.99800533 0.026057059 
-0.044645328 0.9986118 0.027954841 
-0.011526008 0.99991244 0.006512277 
0.0375257 0.9988655 -0.029319784 
0.08981022 0.9942754 -0.057883963 
0.11039282 0.99162275 -0.0670669 
0.10266755 0.99311775 -0.056361243 
0.08563045 0.9954436 -0.041947905 
0.05767914 0.9975252 -0.04020732 
0.024042806 0.9982539 -0.053955954 
0.0014081703 0.9971942 -0.07484538 
0.0026932696 0.9951347 -0.098486856 
0.0038778405 0.9927925 -0.119783826 
-0.009566531 0.99237895 -0.12285217 
-0.024104692 0.99457425 -0.101197846 
-0.029488018 0.9968166 -0.07407585 
0.13166252 0.98749596 0.0866991 
0.103604145 0.99320257 0.053056516 
0.06683362 0.99774575 0.006064454 
0.0451882 0.9985111 -0.030558184 
0.04419359 0.99769545 -0.051484983 
0.07252578 0.995662 -0.058285713 
0.105335414 0.99412143 -0.025044806 
0.08376222 0.9961248 0.026818763 
0.02830458 0.9986374 0.043843232 
-0.0018199531 0.99969685 0.024553787 
0.013363404 0.9998822 0.0075560855 
0.03626677 0.9991525 0.019472808 
0.020313077 0.9993354 0.030266702 
-0.025873497 0.9993107 0.02662369 
-0.06698731 0.99723953 0.032034464 
-0.07991785 0.99572456 0.04632267 
-0.05657848 0.99704325 0.051996082 
-0.006569727 0.99925053 0.038149558 
0.03692286 0.99930465 0.005197075 
0.071807496 0.9966717 -0.038592316 
0.102665596 0.99185115 -0.07543983 
0.10604303 0.9906409 -0.08593941 
0.088095106 0.9935163 -0.07186605 
0.063410394 0.9965599 -0.05336128 
0.033673514 0.9982289 -0.0490413 
0.0017017714 0.9980773 -0.0619593 
-0.018711427 0.9967213 -0.07871891 
-0.017470695 0.99484366 -0.09990459 
-0.01769154 0.9926958 -0.11934006 
-0.030455174 0.99219966 -0.12088123 
-0.042338446 0.9946029 -0.09472404 
-0.043844566 0.9970214 -0.06345204 
0.24827959 0.9630253 0.10459255 
0.20457098 0.9772493 0.0559862 
0.15216696 0.9883224 -0.008013831 
0.11847627 0.9919258 -0.04523967 
0.100930065 0.99366504 -0.04942764 
0.10963371 0.9931061 -0.0414824 
0.13592336 0.990718 -0.0016781242 
0.106399864 0.99217844 0.06527779 
0.03021817 0.9957647 0.086830765 
-0.01152713 0.9988549 0.046435464 
0.002971797 0.9999943 0.001656584 
0.017116304 0.9998096 -0.009366037 
-0.013858091 0.999904 -0.00038728505 
-0.062207464 0.9978325 0.021462763 
-0.08770734 0.9948154 0.051475894 
-0.0798102 0.9943361 0.070186816 
-0.035735555 0.99748397 0.06122698 
0.022179054 0.99925995 0.0314269 
0.052742597 0.9986054 -0.0023524633 
0.06761926 0.9969631 -0.038630925 
0.08517228 0.99412096 -0.06685337 
0.08716353 0.99360627 -0.07175674 
0.072504975 0.9955327 -0.060478527 
0.051158734 0.9975997 -0.046665475 
0.029649492 0.998532 -0.045330327 
0.007945226 0.99817485 -0.05986615 
-0.006118363 0.99717003 -0.07493112 
-0.008084023 0.9958414 -0.090745226 
-0.012580223 0.9945488 -0.103511065 
-0.02586223 0.99439555 -0.10251209 
-0.034342047 0.99638295 -0.07772779 
-0.031650536 0.998222 -0.050508656 
0.50299644 0.7949446 0.33920163 
0.39135638 0.8915843 0.22785456 
0.2716314 0.959813 0.07053821 
0.1994615 0.97985214 -0.010241949 
0.15454055 0.9875419 -0.029633678 
0.13311732 0.99072546 -0.027257811 
0.1374852 0.99048483 0.006144733 
0.10274352 0.99170035 0.077293426 
0.027849354 0.99393237 0.10640878 
-0.009679403 0.9982289 0.05869756 
-5.203643e-06 0.9999937 -0.0035684835 
-0.0013438802 0.99955714 -0.02972873 
-0.032908544 0.9993293 -0.016064137 
-0.05848127 0.99793464 0.026579097 
-0.0627399 0.9957734 0.06707593 
-0.04958022 0.9957497 0.0776166 
-0.010109892 0.998593 0.052056413 
0.02972722 0.99942917 0.016056951 
0.038024712 0.999252 -0.007045183 
0.04035856 0.9987898 -0.028112147 
0.053789467 0.9975899 -0.043831125 
0.0599623 0.9970841 -0.04720137 
0.051976997 0.99761444 -0.045431893 
0.03985265 0.99845755 -0.038657043 
0.033135075 0.998642 -0.04020323 
0.026852438 0.99823374 -0.05299603 
0.021824818 0.9978073 -0.062484898 
0.01662697 0.9975071 -0.06858111 
0.0061589936 0.997243 -0.073948815 
-0.009929119 0.99727756 -0.073068 
-0.016280359 0.99827045 -0.056489494 
-0.0108801 0.9991564 -0.039599363 
0.5732701 -0.27214065 0.7728524 
0.5839788 0.4126438 0.69906646 
0.393755 0.87791604 0.27243453 
0.25497046 0.9649171 0.062651455 
0.18241741 0.9831974 -0.0068531963 
0.14705597 0.9887233 -0.028299345 
0.1409833 0.99001074 -0.0015643358 
0.096780196 0.9924287 0.07562291 
0.01746486 0.99402624 0.10773515 
-0.018062059 0.9983085 0.055263314 
-0.0136134 0.9998423 -0.011411845 
-0.017912716 0.9992421 -0.03455909 
-0.027775561 0.99959195 -0.0066691223 
-0.023631621 0.99867547 0.045705177 
-0.01743475 0.99700767 0.07531226 
-0.009792823 0.9979978 0.06248567 
0.013175309 0.9996511 0.02289586 
0.028109474 0.9995855 -0.00623018 
0.02127333 0.99972034 -0.010333737 
0.01782201 0.99971855 -0.015658366 
0.024703277 0.99936473 -0.025689175 
0.028556298 0.99902976 -0.03352965 
0.025048891 0.99899036 -0.037295602 
0.025338255 0.99916905 -0.031926647 
0.033822726 0.99884117 -0.034240402 
0.042126406 0.9982382 -0.04178569 
0.04601664 0.99802 -0.042879302 
0.03878868 0.9983933 -0.041309536 
0.022770623 0.99875605 -0.044360127 
0.004143531 0.9988667 -0.04741466 
-0.0005328869 0.9991432 -0.04138485 
0.0062979534 0.99941087 -0.033739574 
0.39295173 -0.81781846 0.42043066 
0.5749856 -0.33021575 0.7485647 
0.50609744 0.76391643 0.40037102 
0.28580263 0.9518257 0.11110796 
0.18135478 0.9833806 0.008546977 
0.14068186 0.9894887 -0.033479728 
0.13969938 0.99003536 -0.01772446 
0.099622205 0.99320567 0.06014891 
0.020323062 0.99539936 0.093633525 
-0.018623084 0.9988145 0.044976417 
-0.023521965 0.99968475 -0.008783023 
-0.027415812 0.99954987 -0.012186318 
-0.018433321 0.999364 0.030524282 
0.0017226274 0.9973208 0.07313259 
0.009949206 0.9973002 0.07275531 
0.012702182 0.9992827 0.03567484 
0.019618012 0.99979305 -0.0053882613 
0.016651621 0.99965256 -0.020436218 
0.010001519 0.99986666 -0.012913469 
0.011621614 0.9997736 -0.017824542 
0.015401129 0.99937034 -0.031964626 
0.015702238 0.999203 -0.036698118 
0.015692506 0.9993524 -0.03238361 
0.025527129 0.9993338 -0.02608464 
0.03911465 0.9987537 -0.031002555 
0.05023353 0.99817544 -0.03350315 
0.054752108 0.99810165 -0.02820315 
0.042762056 0.99874914 -0.025915943 
0.0226279 0.99923855 -0.031787172 
0.0055615054 0.99925417 -0.038215056 
0.0060893334 0.9992732 -0.03763066 
0.017619757 0.9993185 -0.032435402 
0.51390004 -0.83360416 0.20251179 
0.774456 -0.39228976 0.49631315 
0.6037019 0.75577015 0.2536842 
0.30869597 0.9498034 0.050796248 
0.1814358 0.9832777 -0.015686348 
0.14049257 0.98879886 -0.05038477 
0.15091856 0.9879176 -0.035248082 
0.12286107 0.99150944 0.042594787 
0.05229704 0.9956076 0.07765683 
0.008064748 0.9991092 0.041423652 
-0.013236178 0.9998644 0.009805918 
-0.023585346 0.99932307 0.028235573 
-0.011144038 0.9970465 0.07598886 
0.0063620326 0.99536026 0.09600851 
0.0070623276 0.99773407 0.06690928 
0.0006632788 0.9998326 0.018290805 
-0.0065703536 0.99978566 -0.019634545 
-0.0108202305 0.9995536 -0.02785102 
0.002355284 0.9997791 -0.02088911 
0.018470017 0.9993095 -0.03224286 
0.023007052 0.99871826 -0.04508228 
0.023420198 0.9989495 -0.039389174 
0.03052893 0.99908394 -0.029989773 
0.0500279 0.99829185 -0.030178605 
0.06152694 0.997403 -0.037440088 
0.06115095 0.99760735 -0.032252096 
0.050649434 0.9985252 -0.019547082 
0.02561615 0.99955386 -0.015360967 
0.0031393783 0.99970716 -0.023995325 
-0.0041666413 0.99940217 -0.03432449 
0.0099812485 0.99930066 -0.0360361 
0.032220732 0.99904615 -0.029472455 
0.90923077 -0.41627762 -0.0035134843 
0.9728935 0.22506237 0.05315403 
0.52608895 0.84960884 -0.03735307 
0.27117035 0.95931894 -0.07857465 
0.16940464 0.9823703 -0.07906218 
0.1432607 0.9857273 -0.08841984 
0.16965182 0.9835182 -0.062532835 
0.15943599 0.98693717 0.02313614 
0.09840021 0.9927341 0.069256306 
0.042800844 0.99797046 0.04715101 
0.0058868034 0.99953175 0.030027758 
-0.009599906 0.99825513 0.058262635 
-0.002210012 0.9953629 0.09616646 
0.0046529397 0.9957996 0.09144146 
-0.0049151583 0.9988021 0.048685122 
-0.023536338 0.9997144 0.0041682743 
-0.042093832 0.99882483 -0.024026385 
-0.039303847 0.99893904 -0.02400328 
-0.007346524 0.99984014 -0.016302386 
0.01995867 0.99939144 -0.02860966 
0.03178366 0.9987743 -0.03794645 
0.043431558 0.998451 -0.034777474 
0.0658669 0.9971924 -0.035623048 
0.095080055 0.99453473 -0.043132365 
0.09880654 0.99402225 -0.046443947 
0.07807673 0.99638927 -0.03335648 
0.044841763 0.99889475 -0.014095144 
0.0072942786 0.99996054 -0.005081325 
-0.011501771 0.9998278 -0.014567159 
-0.0019198986 0.9995986 -0.028263759 
0.029625809 0.9990383 -0.032324623 
0.061216075 0.9977458 -0.027495729 
0.82218516 0.55287755 -0.13541868 
0.6020361 0.7853995 -0.14387591 
0.32690558 0.9315621 -0.159138 
0.20243582 0.9674333 -0.15196256 
0.151609 0.980498 -0.12505373 
0.14543003 0.9831285 -0.11094367 
0.17596574 0.98230654 -0.064109825 
0.1641888 0.98610675 0.025208738 
0.10316092 0.9926384 0.063457005 
0.04600495 0.9982432 0.03733947 
0.010447212 0.99959713 0.026392331 
-0.0021576304 0.9983922 0.056642745 
0.004383151 0.9970622 0.07647141 
0.008228284 0.9986246 0.0517815 
-0.007755539 0.99991655 0.010340153 
-0.03909107 0.9990768 -0.017821807 
-0.062814735 0.9976159 -0.028582241 
-0.048428968 0.99872947 -0.013937692 
-0.0047617657 0.99998575 0.002412025 
0.0270814 0.99961865 -0.005399222 
0.04494283 0.9988415 -0.0171992 
0.06611874 0.9974016 -0.02860889 
0.096217275 0.9944991 -0.04139942 
0.12216398 0.99126184 -0.049758647 
0.1142636 0.9921715 -0.050393183 
0.08138069 0.99606705 -0.035038665 
0.038246177 0.99922323 -0.009502827 
0.00079828984 0.9999817 0.006001277 
-0.0082424935 0.9999632 -0.0024005088 
0.016147045 0.9997207 -0.017263984 
0.058666963 0.9979845 -0.024189241 
0.092467956 0.9954204 -0.024248227 
0.36073178 0.92823315 -0.090862684 
0.2633899 0.95778406 -0.11521952 
0.16974567 0.97586864 -0.13735703 
0.13298698 0.9823493 -0.13154662 
0.112840354 0.9883037 -0.1025819 
0.1120898 0.9902681 -0.08249291 
0.1331051 0.9903162 -0.039458916 
0.11844167 0.9926776 0.023723064 
0.06648629 0.9971215 0.036446847 
0.018521728 0.9998063 0.0066712145 
-0.009614642 0.99993217 0.0065751555 
-0.011879171 0.9993261 0.034731615 
0.007184396 0.999417 0.033377364 
0.018569132 0.99982435 -0.002558713 
-0.0012336812 0.99952936 -0.030651495 
-0.037857857 0.9985311 -0.03876401 
-0.05336743 0.9980284 -0.033036735 
-0.026392983 0.9996293 -0.0066893944 
0.01707808 0.9997628 0.013517533 
0.040892318 0.99914134 0.0066610645 
0.05639605 0.9983786 -0.0077345963 
0.07850662 0.99655735 -0.02664822 
0.10100985 0.993968 -0.042716682 
0.10943535 0.99275744 -0.04956396 
0.09058673 0.99482137 -0.046092264 
0.05890695 0.9979535 -0.024877818 
0.02098903 0.9997662 0.005201859 
-0.004957801 0.9998083 0.018942764 
0.0010820158 0.9999698 0.0077002994 
0.038490333 0.9992446 -0.0053560995 
0.087917954 0.9960702 -0.010706972 
0.12184596 0.99247617 -0.012029048 
0.12539046 0.9909401 -0.048116222 
0.09330791 0.99342024 -0.06640786 
0.06936455 0.99415416 -0.082741745 
0.06424652 0.9951022 -0.07512664 
0.052804753 0.9970211 -0.05621907 
0.054641485 0.997205 -0.05095727 
0.07475263 0.99677366 -0.029229106 
0.06643703 0.99777764 0.005105871 
0.025950493 0.9996624 0.0012710897 
-0.013694559 0.99968654 -0.02096145 
-0.032851774 0.99943244 -0.0074622445 
-0.019752767 0.9996848 0.015495125 
0.012691704 0.9999168 -0.0023401119 
0.02454448 0.9988919 -0.04015605 
-0.0022732539 0.9984634 -0.05536973 
-0.03326286 0.99803084 -0.05318048 
-0.029673606 0.9987398 -0.040477112 
0.0082213525 0.99990934 -0.010665483 
0.044716842 0.99896955 0.0077644773 
0.055459052 0.9984588 0.002070879 
0.06556347 0.9978025 -0.00958007 
0.08280275 0.99613804 -0.029200677 
0.08833949 0.99492043 -0.048266646 
0.07429364 0.9958297 -0.052948795 
0.04772825 0.99819005 -0.036590535 
0.024643961 0.99968606 -0.004523802 
0.0012053485 0.99973816 0.022852706 
-0.005827802 0.9997498 0.021599293 
0.017219242 0.99985135 -0.0010013725 
0.06209372 0.9979738 -0.013885553 
0.111540474 0.9936375 -0.015601959 
0.14425687 0.98941916 -0.015484047 
0.035131674 0.9993231 -0.010915282 
0.017210651 0.9996674 -0.019205952 
0.007009544 0.9996183 -0.02672515 
0.0052151065 0.9996388 -0.026366236 
-0.0006870348 0.99950564 -0.03143491 
0.01252974 0.9989568 -0.043915004 
0.039611027 0.9987093 -0.031791072 
0.039226424 0.9992067 -0.006882655 
0.0086825155 0.9999036 -0.010837153 
-0.02536985 0.9994488 -0.021416157 
-0.04047623 0.9991776 -0.0024368323 
-0.021025319 0.9997498 0.007638295 
0.010204017 0.99960595 -0.02614973 
0.009318942 0.99784625 -0.06493216 
-0.023368692 0.99718356 -0.07126629 
-0.038121395 0.99737656 -0.06153678 
-0.012918068 0.99911594 -0.040006407 
0.030966867 0.9995024 -0.006012751 
0.06036208 0.9981554 0.006497767 
0.0636706 0.9979618 -0.004270714 
0.07352109 0.99715143 -0.016845746 
0.08837145 0.99539775 -0.037066925 
0.08192053 0.9949442 -0.058095656 
0.053408563 0.99684495 -0.058716495 
0.020466242 0.99935293 -0.029578056 
0.0016260643 0.9999681 0.007833253 
-0.008459578 0.99968445 0.023650214 
0.0022377763 0.9999969 0.0011513577 
0.03494266 0.99879956 -0.03432908 
0.07443035 0.99603665 -0.04869482 
0.11467217 0.99199784 -0.052826528 
0.14503458 0.98773396 -0.05785022 
-0.009231055 0.9998228 0.016408749 
-0.02675259 0.99958694 0.010505411 
-0.035553522 0.999365 -0.0023976592 
-0.03107931 0.99926543 -0.022421455 
-0.019384077 0.9986725 -0.047724657 
0.011366251 0.99822193 -0.05851329 
0.043997042 0.9984486 -0.03412986 
0.04615538 0.99893326 -0.001444657 
0.018770276 0.99982274 0.001461063 
-0.016308011 0.9998608 -0.0035175786 
-0.0338636 0.9993769 0.009960029 
-0.018667027 0.99981916 0.0036337816 
-0.0032570793 0.99918306 -0.04028221 
-0.025031876 0.9970254 -0.07289732 
-0.059431963 0.99588805 -0.06837296 
-0.054839555 0.9972191 -0.050465476 
-0.01286296 0.99969053 -0.021294722 
0.0346665 0.99934703 0.010189561 
0.062301483 0.998022 0.00841286 
0.067027144 0.99765927 -0.01354665 
0.0807675 0.9963136 -0.028912935 
0.096147925 0.9942554 -0.04703005 
0.08610506 0.9939798 -0.06775001 
0.049865086 0.9963931 -0.06866075 
0.007862393 0.99930346 -0.036480524 
-0.013448706 0.9999096 -0.00043590137 
-0.012671357 0.9998947 0.007074581 
0.010586751 0.999658 -0.023913072 
0.040097624 0.99728525 -0.061759625 
0.0640542 0.9946623 -0.08089482 
0.09394465 0.99034196 -0.10196675 
0.12441904 0.98430115 -0.12518439 
-0.031676453 0.9991284 0.027188204 
-0.048821695 0.9986629 0.016996726 
-0.049984258 0.9987263 -0.006891613 
-0.026520547 0.99889266 -0.03886007 
0.008889018 0.99804807 -0.061814334 
0.048028868 0.99740314 -0.053669218 
0.069387116 0.99747753 -0.014972594 
0.058210105 0.998137 0.018279346 
0.024645777 0.9995515 0.017012803 
-0.014680453 0.9998629 0.0076699397 
-0.03636533 0.99925745 0.01273658 
-0.028394887 0.9995949 -0.0019080177 
-0.026766106 0.99872285 -0.042853326 
-0.05800324 0.9963366 -0.062841944 
-0.081667036 0.9954332 -0.049429774 
-0.055798735 0.99809456 -0.026339367 
-0.00520044 0.999969 0.0059262994 
0.035602316 0.9989287 0.02956158 
0.0542516 0.9984799 0.009727121 
0.05638075 0.99803627 -0.027293079 
0.06902538 0.9964424 -0.04835527 
0.08219587 0.9944335 -0.06592273 
0.07238167 0.99378127 -0.08461536 
0.03898916 0.99577093 -0.083187416 
0.0008243751 0.9987972 -0.049027853 
-0.01728892 0.9997639 -0.013162762 
-0.011887925 0.9999197 -0.0043953466 
0.009974466 0.9995047 -0.029849948 
0.028140105 0.9973003 -0.06782585 
0.04373775 0.99309987 -0.10880984 
0.07651307 0.98181194 -0.17375574 
0.112778395 0.9651565 -0.23612313 
-0.026451498 0.99955547 0.013760329 
-0.040268723 0.9991612 0.007442177 
-0.030941598 0.9994593 -0.011123221 
0.008573798 0.9994358 -0.032476336 
0.053242207 0.9979553 -0.035362992 
0.07875205 0.99684536 -0.009869785 
0.0717932 0.9970864 0.025777396 
0.040982936 0.99834085 0.040447418 
0.0025502224 0.9997543 0.022020223 
-0.037015665 0.9993107 0.00286168 
-0.05753467 0.9983425 0.0014179727 
-0.04805062 0.99877197 -0.012075902 
-0.0456116 0.99815005 -0.040202256 
-0.07042358 0.9964429 -0.046283353 
-0.076678194 0.9966474 -0.028538063 
-0.036850594 0.99931157 -0.0043090186 
0.007679052 0.9996153 0.026653124 
0.030696498 0.99878955 0.03843483 
0.035587598 0.999364 0.0022744695 
0.032294594 0.99856526 -0.042715505 
0.040092863 0.99722207 -0.06277579 
0.049122464 0.9958542 -0.07656069 
0.044834677 0.9948019 -0.09142871 
0.025135808 0.9957971 -0.08807012 
-0.00015663126 0.9984464 -0.05572225 
-0.01364954 0.99966776 -0.021865254 
-0.009927453 0.99988145 -0.011778525 
0.0052363067 0.99928916 -0.03733434 
0.015140689 0.99551594 -0.09337488 
0.03374448 0.9818898 -0.18642369 
0.08748329 0.9369084 -0.33845136 
0.14040808 0.8694018 -0.47373644 
0.025021039 0.9996787 -0.004073418 
0.013508069 0.99990875 -7.5721575e-05 
0.020849695 0.99978256 -0.00030161015 
0.051933877 0.99865025 0.0008073485 
0.07969563 0.99665654 0.018012274 
0.07837499 0.99576944 0.047964767 
0.047663283 0.99661064 0.06704888 
0.008459317 0.99835 0.056796063 
-0.026642848 0.99943995 0.02024637 
-0.061679214 0.99806225 -0.008210548 
-0.0778216 0.99689656 -0.01187735 
-0.063173614 0.99785656 -0.017072171 
-0.05477044 0.9979529 -0.03302198 
-0.07018907 0.9968867 -0.035924062 
-0.0643132 0.9976768 -0.02246772 
-0.022223849 0.9997527 0.00086592097 
0.009380771 0.999536 0.02898203 
0.019234706 0.99931955 0.03147438 
0.02031313 0.9997563 -0.008652619 
0.01819175 0.9988078 -0.0453007 
0.023554748 0.9982788 -0.0537086 
0.028361268 0.9975231 -0.06436829 
0.025391543 0.99624825 -0.08273254 
0.011204459 0.99645495 -0.08337897 
-0.006535424 0.9983998 -0.05617133 
-0.010765703 0.9995535 -0.02787458 
-0.00025878416 0.9996859 -0.02506157 
0.014516001 0.9976303 -0.06725438 
0.021016762 0.9865184 -0.16229545 
0.05582908 0.9401271 -0.33622047 
0.16770083 0.7552397 -0.63363194 
0.24949631 0.45907855 -0.8526421 
0.0677931 0.9976894 0.0044715493 
0.05348553 0.99851424 0.010425052 
0.0468901 0.9987369 0.018051209 
0.055552527 0.9980106 0.029814944 
0.061244566 0.9967666 0.052014668 
0.045685608 0.99615 0.07481983 
0.013989945 0.9968711 0.07779701 
-0.016082658 0.9985827 0.050734077 
-0.03943454 0.99920744 0.0054230583 
-0.06487892 0.9976248 -0.02314182 
-0.07263164 0.9971401 -0.020886408 
-0.052161295 0.9984768 -0.017979229 
-0.042450357 0.99863195 -0.030535609 
-0.05698138 0.99776644 -0.034861866 
-0.050905794 0.99849975 -0.020174386 
-0.02023453 0.99976206 0.008149767 
-0.0066120536 0.99940085 0.033975884 
-0.0030044513 0.99963987 0.026668888 
0.0045961495 0.9998999 -0.013387746 
0.011745223 0.99932337 -0.03485692 
0.021642026 0.99931484 -0.03002446 
0.027983904 0.99873453 -0.041788828 
0.025264105 0.9973366 -0.06842065 
0.0067730243 0.99724907 -0.073814064 
-0.008389156 0.99874616 -0.049354244 
0.0032638118 0.999605 -0.027916653 
0.031028513 0.99870044 -0.040432215 
0.05951807 0.9922827 -0.108778335 
0.089755535 0.965861 -0.24301568 
0.19729936 0.8498515 -0.4886979 
0.44573328 0.2836955 -0.84902227 
0.44402084 -0.40898275 -0.7972319 
0.064004235 0.9977978 0.017409196 
0.046707354 0.99882805 0.0126932785 
0.030195495 0.99946433 0.012620304 
0.025262231 0.99943376 0.02222865 
0.023170026 0.9988956 0.04087617 
0.013956626 0.99824303 0.057585567 
-0.0006291631 0.9984782 0.055144224 
-0.014252796 0.9995648 0.025828574 
-0.026508586 0.9995447 -0.014421429 
-0.041631877 0.9985231 -0.034907624 
-0.041228775 0.9987334 -0.028839797 
-0.02200822 0.9994517 -0.024738485 
-0.019728655 0.9992564 -0.033127792 
-0.036001563 0.99893165 -0.02897624 
-0.034426183 0.9994044 -0.0023909006 
-0.02388295 0.9991497 0.033609897 
-0.031024626 0.99808985 0.053424444 
-0.033501126 0.998827 0.034964677 
-0.019645343 0.9998066 -0.00095528626 
-0.0030892275 0.9999274 -0.011650397 
0.016242927 0.99982935 -0.008810849 
0.035413068 0.9988763 -0.031496998 
0.04054463 0.9970005 -0.06592552 
0.021793194 0.9973476 -0.069446646 
0.010829483 0.9991273 -0.04033963 
0.032461613 0.99923676 -0.021727184 
0.07303061 0.99615663 -0.048359796 
0.12571304 0.98265535 -0.13632599 
0.20811261 0.9355138 -0.28548762 
0.42248037 0.74368393 -0.5181164 
0.7275007 -0.108544566 -0.6774665 
0.51164895 -0.72285825 -0.4644257 
0.04240495 0.99885637 0.022089839 
0.022831677 0.9997357 0.0026818486 
0.0029657497 0.99995965 -0.008486438 
-0.004833282 0.99998736 -0.001366077 
-0.0044656955 0.99985117 0.01666489 
0.00019384878 0.99940956 0.034359947 
0.0042660898 0.99937123 0.0352007 
0.0019152504 0.9999313 0.011567948 
-0.006469095 0.9997397 -0.021879898 
-0.016306493 0.9989751 -0.042223517 
-0.014991851 0.998986 -0.04245369 
-0.0034841513 0.999304 -0.03713924 
-0.0031094044 0.99946547 -0.032545675 
-0.011287503 0.9998397 -0.013901833 
-0.016584165 0.9996041 0.022729944 
-0.03150485 0.9978056 0.05823779 
-0.058360375 0.9960421 0.06703948 
-0.066599004 0.99675965 0.045108482 
-0.04741632 0.9986234 0.022429513 
-0.021394426 0.999643 0.01600648 
0.009701215 0.9999382 0.0054293345 
0.043155033 0.99869174 -0.027433222 
0.057753235 0.9965684 -0.059295826 
0.04762246 0.99736625 -0.054706845 
0.040799428 0.9988524 -0.025090475 
0.055104226 0.9983853 -0.013791702 
0.089492895 0.9949981 -0.044382416 
0.15119056 0.9808138 -0.123068206 
0.25810724 0.9350972 -0.24284568 
0.50229406 0.7685496 -0.39627302 
0.8686487 0.094401255 -0.48635167 
0.75721836 -0.5300727 -0.38163257 
0.020758862 0.99932235 0.030394815 
-0.0046381988 0.99998933 -0.0001951815 
-0.0290908 0.9994165 -0.017904842 
-0.037862737 0.99924254 -0.008983647 
-0.03420061 0.99934477 0.011853585 
-0.018542828 0.99932986 0.03155754 
-0.00092311576 0.9994147 0.03419819 
0.004849476 0.999906 0.012827104 
0.0009837318 0.9997588 -0.021944078 
-0.0049107512 0.99869 -0.05093231 
-0.00830977 0.9985601 -0.052997623 
-0.001664426 0.99948 -0.032202117 
0.008534186 0.99990374 -0.010939992 
0.0037152811 0.9999713 0.006604035 
-0.024662688 0.99927825 0.0288917 
-0.06654429 0.9967799 0.044739988 
-0.09861176 0.9943339 0.039697994 
-0.09270449 0.99518913 0.03169392 
-0.052737337 0.99785674 0.038741495 
-0.011622055 0.9989156 0.045084964 
0.02744935 0.99912965 0.031410713 
0.06054831 0.99816394 -0.0016109581 
0.07164131 0.9971183 -0.024951477 
0.06457236 0.9976899 -0.02109978 
0.051537964 0.9986289 -0.009178038 
0.047751565 0.99881375 -0.00953912 
0.07035871 0.99725133 -0.023228543 
0.13065118 0.98975205 -0.057630118 
0.22276054 0.96837765 -0.11235022 
0.38326538 0.91057426 -0.15479718 
0.6506288 0.7472415 -0.13532312 
0.80910337 0.5840964 -0.06467744 
0.00061690155 0.9982498 0.0591352 
-0.032369014 0.99914366 0.02577418 
-0.06267044 0.9980076 0.0072982176 
-0.07322272 0.9971646 0.017353198 
-0.06928196 0.9969029 0.03721294 
-0.049673896 0.9973416 0.053313784 
-0.02382853 0.9983751 0.05176305 
-0.009611064 0.999583 0.027228883 
-0.008080096 0.99990076 -0.011542804 
-0.014637226 0.9990517 -0.04100813 
-0.022988448 0.9992663 -0.030635595 
-0.012327448 0.99991995 0.0028684458 
0.0030032892 0.9998702 0.015832726 
-0.01844072 0.99980944 0.0064119026 
-0.07178739 0.9974196 0.00093656365 
-0.11946303 0.9928364 -0.0021284237 
-0.12836814 0.9917173 -0.0043070023 
-0.086862616 0.99607646 0.016927734 
-0.026046578 0.9984636 0.04891018 
0.019794533 0.9977814 0.06356383 
0.054927267 0.99709696 0.052733343 
0.074573815 0.9968055 0.028594581 
0.0776023 0.9968629 0.015572342 
0.06888577 0.997584 0.0089968275 
0.04739051 0.9988745 -0.002002679 
0.031067748 0.99943846 -0.012553516 
0.043404803 0.99899143 -0.011499118 
0.08864035 0.99599355 -0.011822508 
0.14486767 0.98918366 -0.023000006 