# OOMMF OVF 2.0
# Segment count: 1
# Begin: Segment
# Begin: Header
# Title: m
# meshtype: rectangular
# meshunit: m
# xmin: 0
# ymin: 0
# zmin: 0
# xmax: 1.6e-07
# ymax: 1.6e-07
# zmax: 5e-09
# valuedim: 3
# valuelabels: m_x m_y m_z
# valueunits: 1 1 1
# Desc: Total simulation time:  7.359063598567581e-11  s
# xbase: 2.5e-09
# ybase: 2.5e-09
# zbase: 2.5e-09
# xnodes: 32
# ynodes: 32
# znodes: 1
# xstepsize: 5e-09
# ystepsize: 5e-09
# zstepsize: 5e-09
# End: Header
# Begin: Data Text
0.52721536 -0.7290259 0.4365379 
0.79842883 -0.2193924 0.56069446 
0.7250904 0.5743815 0.3799077 
0.45420316 0.86568433 0.21045233 
0.26979667 0.95465994 0.12583397 
0.17314751 0.97935516 0.1043233 
0.08381515 0.9872298 0.13547097 
-0.028575243 0.98718244 0.1570176 
-0.10735796 0.98631513 0.12512705 
-0.12200686 0.99044955 0.06421857 
-0.11777317 0.9930057 0.00832381 
-0.12904914 0.9898751 -0.059108615 
-0.14384459 0.9823885 -0.11925402 
-0.16183013 0.9774403 -0.13572575 
-0.16411218 0.9782009 -0.1272407 
-0.12491951 0.9860458 -0.11004049 
-0.06462095 0.99463886 -0.080731995 
-0.024162335 0.9988613 -0.041138414 
-0.011209436 0.9998714 0.011471527 
-0.008470719 0.99831045 0.057484817 
-0.021763355 0.9973821 0.06895886 
-0.052173264 0.99649054 0.06545782 
-0.076355755 0.9945666 0.07076042 
-0.067329854 0.9940413 0.08572349 
-0.03988742 0.9939127 0.10269699 
-0.037247747 0.99128234 0.12638015 
-0.055819917 0.98558676 0.15969634 
-0.059520595 0.980421 0.1877022 
-0.026589483 0.9806694 0.19385722 
0.00804397 0.98609716 0.16597483 
0.015430047 0.9942531 0.10593769 
0.005725418 0.99870133 0.05062631 
0.6581866 -0.47971258 0.5802296 
0.78645754 0.09830089 0.60977167 
0.5977797 0.7119245 0.3685418 
0.36241487 0.91166806 0.19369282 
0.21646483 0.97061294 0.10513644 
0.13968147 0.9868652 0.081156194 
0.06983404 0.9915614 0.10922054 
-0.017814156 0.99195194 0.12535624 
-0.08622737 0.9925719 0.0858256 
-0.111775756 0.99355817 0.018664502 
-0.11586826 0.99287945 -0.027656045 
-0.122006685 0.99120873 -0.05118122 
-0.12614755 0.9897995 -0.06621141 
-0.123603575 0.98909014 -0.080142625 
-0.10493964 0.9898731 -0.09559737 
-0.060507484 0.99299175 -0.101520225 
-0.018155778 0.99584043 -0.08928787 
-0.008400655 0.9982933 -0.05779391 
-0.020460606 0.9997064 -0.012983983 
-0.034876887 0.99901533 0.027421921 
-0.050677646 0.99770284 0.04495428 
-0.07224473 0.99600583 0.05246942 
-0.08884483 0.9935201 0.070884906 
-0.08269856 0.99232465 0.0919394 
-0.06407199 0.9921736 0.10717463 
-0.057975195 0.99066645 0.123364516 
-0.06570799 0.98695356 0.14698696 
-0.061454255 0.9835184 0.17004433 
-0.031037113 0.9835083 0.1781805 
-0.0005748632 0.9867433 0.16228822 
0.00827067 0.99272907 0.12008592 
0.005446981 0.99682325 0.079459764 
0.62842935 0.57441473 0.5245231 
0.5261731 0.7520335 0.3969732 
0.357919 0.90513504 0.22940037 
0.22614914 0.9669267 0.11793825 
0.14804864 0.9875537 0.053096984 
0.105911344 0.9936559 0.037824716 
0.06195588 0.99616617 0.061760474 
0.00324099 0.99763614 0.06864234 
-0.054691773 0.9980206 0.031044055 
-0.08935924 0.9957447 -0.022528233 
-0.091007404 0.9948432 -0.04477401 
-0.085563205 0.9959526 -0.02752221 
-0.084720686 0.9963206 -0.012951307 
-0.072953925 0.99680483 -0.032526594 
-0.047646753 0.99648803 -0.068858355 
-0.012341887 0.99569064 -0.091912664 
0.008907214 0.99595314 -0.089432076 
-0.0038472943 0.9981013 -0.0614739 
-0.030145112 0.99925905 -0.02393146 
-0.052487258 0.99859923 0.006689251 
-0.06489895 0.9975743 0.025172189 
-0.07367611 0.9964219 0.04141502 
-0.08506525 0.9939327 0.0697264 
-0.09012641 0.99145716 0.09428747 
-0.0854673 0.9906 0.10680343 
-0.07517686 0.99029654 0.11688114 
-0.06794635 0.98901135 0.13130088 
-0.053495236 0.9879068 0.14552805 
-0.027216498 0.98799294 0.1520827 
-0.0047501936 0.9890428 0.1475527 
0.0017303326 0.99210924 0.12536454 
0.00029728378 0.9948275 0.10157863 
0.29093286 0.9368193 0.19423644 
0.24498099 0.9569186 0.15585609 
0.17159836 0.98010135 0.09977711 
0.113817215 0.99244004 0.045917764 
0.08758613 0.996113 0.009358591 
0.08013798 0.99678 0.002784271 
0.06180493 0.99792826 0.017870953 
0.019584734 0.9996789 0.016077872 
-0.034486614 0.9993853 -0.006298489 
-0.07042608 0.9970775 -0.029608987 
-0.060411476 0.9976493 -0.03234703 
-0.035195153 0.99937296 -0.0038742046 
-0.029264413 0.99950045 0.011934919 
-0.027987901 0.99945265 -0.017638559 
-0.020154199 0.9977769 -0.06352201 
-0.004492587 0.995929 -0.09002909 
0.0055060387 0.9967141 -0.08081205 
-0.007085427 0.9989671 -0.04488427 
-0.029827025 0.9995027 -0.010237386 
-0.04786604 0.9987982 0.010542401 
-0.051917166 0.99835885 0.024173161 
-0.049667157 0.9979192 0.041114938 
-0.05891978 0.9959291 0.06821759 
-0.07872183 0.992823 0.09003029 
-0.09028829 0.99103063 0.098521665 
-0.07896195 0.991678 0.101685196 
-0.056483325 0.99280316 0.105600975 
-0.031057274 0.9937311 0.107396424 
-0.008366222 0.9939369 0.109633446 
0.0049864645 0.99360543 0.11279863 
0.006064648 0.9941461 0.107873686 
0.0023078737 0.9950087 0.09976243 
0.14852984 0.9801892 0.13102672 
0.12301718 0.98549074 0.11693921 
0.077960074 0.9935029 0.08291088 
0.045850597 0.9981846 0.039054874 
0.04465369 0.9989869 0.005588011 
0.06070539 0.99812317 -0.00807128 
0.059594896 0.998209 -0.005228219 
0.020700715 0.99976456 -0.0065011373 
-0.031587936 0.99945354 -0.009743344 
-0.059520047 0.9981667 -0.010986365 
-0.039358757 0.9991489 -0.012346919 
0.0042735822 0.99999017 0.0012257491 
0.021202581 0.9997646 0.0046179267 
0.0051638274 0.9996918 -0.024282902 
-0.01691039 0.99776244 -0.06468472 
-0.021374535 0.9957689 -0.08937277 
-0.013672074 0.9970916 -0.07497682 
-0.01427444 0.9992744 -0.03531266 
-0.024868337 0.99968874 -0.0020171641 
-0.03252487 0.9992894 0.01905242 
-0.028472336 0.99892855 0.036484122 
-0.02293787 0.99807894 0.057553414 
-0.034463745 0.9962136 0.07981766 
-0.06514137 0.9937185 0.09099624 
-0.085364096 0.9923116 0.08961397 
-0.0711838 0.99387264 0.08455801 
-0.036819186 0.99624777 0.07832536 
-0.0050487127 0.99772525 0.06722284 
0.014042655 0.9978175 0.06452156 
0.021411875 0.9970658 0.07349446 
0.019896837 0.9964065 0.08233044 
0.015293406 0.9961637 0.08616312 
0.0626246 0.98143446 0.18128611 
0.04569498 0.9862413 0.15887205 
0.019282524 0.9927017 0.11904476 
0.0044725877 0.9971836 0.07486497 
0.014453437 0.99919313 0.03747263 
0.03499146 0.9993102 0.012443855 
0.032824874 0.9994517 0.004349311 
-0.005120196 0.9999825 0.00297357 
-0.04285129 0.9990562 0.00710173 
-0.05103081 0.9986499 0.009706523 
-0.022409556 0.9997483 -0.0011618037 
0.02305528 0.9997027 -0.007939887 
0.03574096 0.99922484 -0.01650777 
0.0030298296 0.99929446 -0.037435137 
-0.035297714 0.99725735 -0.0650524 
-0.044077776 0.9951915 -0.087470345 
-0.030188948 0.99652696 -0.07760633 
-0.017646614 0.99897534 -0.04167675 
-0.015075243 0.9998681 -0.006058015 
-0.012453452 0.99967766 0.022127695 
-0.0072121737 0.9988376 0.04766044 
-0.006813558 0.99733186 0.07268399 
-0.0193697 0.99591064 0.08824227 
-0.04979302 0.99473685 0.08955002 
-0.07148935 0.994117 0.08136795 
-0.058354374 0.99577767 0.0708647 
-0.021598963 0.99818957 0.056134664 
0.010939011 0.99926573 0.03671962 
0.027673682 0.99913037 0.031189525 
0.032285415 0.9985577 0.04289841 
0.030458478 0.9977621 0.05952362 
0.026162267 0.99719924 0.07006598 
0.07265285 0.9806256 0.18192033 
0.055916347 0.9876172 0.14657998 
0.038018856 0.993021 0.11164201 
0.027802002 0.99529064 0.09286435 
0.025954586 0.9968231 0.07530044 
0.020743437 0.998319 0.054119714 
-0.0029898535 0.9991406 0.041341778 
-0.039576765 0.998533 0.036954463 
-0.05643294 0.9978353 0.03376546 
-0.04722623 0.9986891 0.019742064 
-0.0163949 0.9997355 -0.01613499 
0.025606541 0.9986626 -0.044914745 
0.031832263 0.99823385 -0.05015874 
-0.00961664 0.99887806 -0.04637105 
-0.04951106 0.997256 -0.05503771 
-0.05355111 0.9957195 -0.07533332 
-0.035773583 0.99682444 -0.07114266 
-0.018491678 0.9991096 -0.037921105 
-0.0070535443 0.9999746 -0.0009999338 
0.0024355464 0.99963975 0.026728392 
0.0030874857 0.9987192 0.050500695 
-0.003694061 0.9975795 0.069437295 
-0.01331154 0.9971523 0.07423099 
-0.03686659 0.9968107 0.07077717 
-0.057328615 0.99630624 0.063932784 
-0.047053657 0.9973105 0.05619418 
-0.012425764 0.9990032 0.04287664 
0.01814388 0.9995143 0.025337005 
0.03130084 0.99929947 0.020515816 
0.0317308 0.9990059 0.03131265 
0.028429374 0.998496 0.04687886 
0.023511615 0.99813914 0.056262583 
0.28189847 0.9570265 0.068071425 
0.21544552 0.9764138 0.014121322 
0.14517342 0.9894062 0.00037738963 
0.104324654 0.99394387 0.034524184 
0.06599314 0.99582225 0.06311152 
0.016215144 0.99777216 0.06471447 
-0.03482136 0.9976798 0.05850286 
-0.06588942 0.99625707 0.05595033 
-0.06374974 0.9970297 0.043218203 
-0.04613525 0.9989139 0.0065233917 
-0.01693272 0.9982852 -0.056035988 
0.02647008 0.99452025 -0.10113758 
0.036889073 0.99509484 -0.091790095 
-0.0005638467 0.99854666 -0.05389346 
-0.039335802 0.99838597 -0.040966958 
-0.048804417 0.9973065 -0.054752983 
-0.038750574 0.9981046 -0.04780828 
-0.02315176 0.99963945 -0.013605461 
-0.0045801164 0.9997844 0.020253628 
0.009184765 0.99916935 0.039704483 
0.0041333893 0.9986301 0.052161805 
-0.006996576 0.99831563 0.057593938 
-0.013405632 0.99854356 0.05225885 
-0.030735591 0.99837786 0.04792691 
-0.046851005 0.99792516 0.044165142 
-0.034614693 0.9985072 0.04225116 
0.00036391013 0.9993047 0.037284605 
0.02983254 0.99919486 0.026829718 
0.038990945 0.99896216 0.023546137 
0.03287407 0.9989648 0.03144317 
0.024552474 0.9988132 0.042063616 
0.016875371 0.99869746 0.04815231 
0.7542469 0.6169677 -0.22463842 
0.5445604 0.7907955 -0.27945766 
0.3062633 0.9317301 -0.1951462 
0.18802842 0.97961164 -0.07075672 
0.10465844 0.99433094 0.018780284 
0.012764819 0.9984454 0.05425836 
-0.06330401 0.9962069 0.059702784 
-0.09224218 0.9943372 0.052774195 
-0.076990135 0.99670374 0.025580086 
-0.05432911 0.99814975 -0.027301393 
-0.023516634 0.9944384 -0.1026609 
0.027856734 0.9887049 -0.14726369 
0.04811576 0.99224454 -0.11461084 
0.015992146 0.9985571 -0.051264923 
-0.024856102 0.99920243 -0.03125518 
-0.03940834 0.9983296 -0.042249896 
-0.031506695 0.99901783 -0.031159496 
-0.015196624 0.9998799 0.0030723417 
0.004292136 0.9994007 0.034350432 
0.012769268 0.99868816 0.04958795 
-0.0025104927 0.9984901 0.05487617 
-0.021294553 0.9984911 0.05061788 
-0.02901707 0.99878097 0.03993468 
-0.037708584 0.9986336 0.036179416 
-0.04220567 0.99848956 0.035174645 
-0.023280006 0.99901795 0.037698414 
0.012344281 0.9992226 0.037443366 
0.038840823 0.9987875 0.03024932 
0.043661974 0.9986473 0.028235434 
0.032878418 0.99883705 0.035264656 
0.021033088 0.9988874 0.042207778 
0.012492045 0.9988683 0.045893528 
0.6858162 -0.49598122 -0.53259635 
0.724788 0.12198632 -0.6780868 
0.4242837 0.81028956 -0.4042453 
0.22934398 0.96237606 -0.14571828 
0.11250877 0.99361724 -0.0081619 
-0.0009244092 0.9988073 0.048818912 
-0.08874574 0.9942368 0.060145166 
-0.115472876 0.9923835 0.042909116 
-0.09292886 0.9956693 0.002631816 
-0.07028868 0.99610084 -0.053317416 
-0.045634463 0.99126136 -0.12376801 
0.0068806685 0.98741084 -0.15802738 
0.040991932 0.9931738 -0.10920394 
0.023920242 0.99894875 -0.039106674 
-0.0085936375 0.9996412 -0.025373712 
-0.018813545 0.9990572 -0.039127108 
-0.00987614 0.99946404 -0.031213209 
0.0023528337 0.9999835 -0.005242865 
0.012784516 0.999708 0.020510834 
0.007877203 0.99933195 0.035690818 
-0.02015571 0.99890983 0.042107128 
-0.046027463 0.9981857 0.038817555 
-0.052550774 0.9980021 0.035074323 
-0.050756793 0.99788535 0.04060352 
-0.045530412 0.99794114 0.04517286 
-0.024161441 0.99853885 0.048337877 
0.007013215 0.99892586 0.045805395 
0.026392754 0.9989513 0.03741386 
0.027401662 0.99900895 0.035074882 
0.018253863 0.999015 0.040447954 
0.011377008 0.99896026 0.044148512 
0.009112451 0.99890095 0.045979008 
0.387155 -0.7939108 -0.4688462 
0.53639764 -0.29619485 -0.7902825 
0.39429152 0.7546756 -0.5244034 
0.21728021 0.9595621 -0.17896931 
0.10336265 0.9944745 -0.018349718 
-0.011899255 0.998751 0.048526898 
-0.09886531 0.99297106 0.06507029 
-0.12102452 0.9917975 0.04111933 
-0.09688767 0.99527127 -0.00691829 
-0.081777416 0.9949706 -0.05784545 
-0.07005945 0.9910859 -0.11331619 
-0.021215482 0.99112797 -0.13120714 
0.02429885 0.99691665 -0.07461076 
0.022419006 0.9996377 -0.014900493 
0.00028867624 0.999844 -0.017661903 
-0.005964613 0.99921656 -0.039125785 
0.0029824043 0.99919564 -0.039991584 
0.012146397 0.9995582 -0.027129013 
0.014782319 0.9998461 -0.009449497 
-0.0015126126 0.99997675 0.0066554463 
-0.036642108 0.99914306 0.019250533 
-0.06100551 0.99783415 0.02460414 
-0.06131659 0.9975078 0.034906235 
-0.051946368 0.9972827 0.05223803 
-0.04375156 0.99724424 0.05991432 
-0.027102353 0.997893 0.058950793 
-0.007986203 0.9987119 0.050108597 
-0.0011157 0.99928004 0.03792277 
-0.004523252 0.9994708 0.032215696 
-0.007932768 0.99942744 0.032891862 
-0.0038046609 0.9994616 0.032591045 
0.0041767587 0.99945796 0.032655403 
0.25489157 -0.7239931 -0.640987 
0.3114845 -0.1489537 -0.93850434 
0.22622253 0.8099898 -0.5410543 
0.1454996 0.97149 -0.18718155 
0.08223756 0.99625325 -0.026767977 
-0.006653779 0.9986743 0.05104346 
-0.07632259 0.9941247 0.0767523 
-0.091540635 0.9944784 0.05131264 
-0.075917624 0.9971136 0.0009979106 
-0.08052508 0.9959409 -0.04021833 
-0.09026956 0.9926855 -0.08016777 
-0.050260812 0.9947513 -0.08912858 
0.0016268145 0.9992928 -0.03757009 
0.009358686 0.9999443 0.004875226 
-0.008207848 0.99991024 -0.010599601 
-0.01400825 0.9992876 -0.03504463 
-0.0030594626 0.9990785 -0.04281148 
0.009524023 0.99903536 -0.042867154 
0.011752992 0.9994027 -0.03250071 
-0.007769514 0.9998909 -0.012567159 
-0.038436808 0.9992177 0.009320381 
-0.051723767 0.998375 0.023920467 
-0.044951152 0.99811375 0.04181271 
-0.03391153 0.997692 0.058828074 
-0.028806323 0.9977691 0.06022435 
-0.02256476 0.99838024 0.052229274 
-0.021218432 0.9990718 0.037491113 
-0.030374996 0.9993165 0.021069692 
-0.04055917 0.9991064 0.011889733 
-0.039902676 0.99915165 0.010186392 
-0.025638059 0.9996242 0.009711254 
-0.008935545 0.9999031 0.010677981 
0.109331004 -0.044243004 -0.9930203 
0.09863503 0.50254273 -0.8589074 
0.07388054 0.9089039 -0.41040903 
0.07998336 0.98440653 -0.15667298 
0.070005074 0.9973597 -0.019314693 
0.014975964 0.997622 0.06727684 
-0.033859976 0.9946165 0.097937375 
-0.046440266 0.99674916 0.06583755 
-0.04700749 0.99885076 0.009356433 
-0.0749156 0.9968372 -0.026520053 
-0.10070195 0.9933808 -0.05526173 
-0.06650984 0.9961594 -0.05694716 
-0.014993508 0.9998362 -0.0101371715 
-0.004847545 0.9998169 0.018510327 
-0.021103285 0.99977136 -0.0034420264 
-0.02661613 0.9992556 -0.027928019 
-0.012340985 0.99914145 -0.039549604 
0.0048103253 0.9990486 -0.04334702 
0.0068398705 0.9995205 -0.03020041 
-0.013927676 0.9998919 -0.00473924 
-0.0357464 0.9991555 0.020260753 
-0.03563559 0.9987618 0.034715872 
-0.020807894 0.9987138 0.046236455 
-0.008692189 0.99861145 0.051959235 
-0.010748049 0.9988712 0.046270788 
-0.020083006 0.99913645 0.036374863 
-0.03665949 0.9991195 0.020406708 
-0.05806701 0.9983113 0.0017259187 
-0.073584564 0.99726284 -0.0072337273 
-0.06992362 0.99754494 -0.003847788 
-0.046049297 0.9989302 0.0042327773 
-0.021661771 0.99968857 0.012391483 
0.12185849 0.88466465 -0.45002112 
0.06895049 0.9389125 -0.33717808 
0.037665494 0.9825093 -0.1823647 
0.060531158 0.99476486 -0.08233371 
0.06621299 0.99771106 0.013728131 
0.026544096 0.995431 0.0917199 
-0.0073295212 0.99360025 0.112716325 
-0.019545048 0.9974345 0.068866685 
-0.035260446 0.99934113 0.008614525 
-0.07633958 0.99687886 -0.020122703 
-0.10165468 0.9940353 -0.03950037 
-0.06257443 0.99732685 -0.037731323 
-0.00836964 0.999963 0.00200568 
0.004572184 0.99981743 0.018556233 
-0.011428599 0.99990994 -0.0070466283 
-0.018311612 0.9994093 -0.029082961 
-0.0067587667 0.9993278 -0.03603451 
0.002801032 0.99952346 -0.030742683 
-0.0063740127 0.9999164 -0.011255902 
-0.031665035 0.99939805 0.014171896 
-0.044060715 0.99828154 0.038634997 
-0.032568086 0.9981307 0.05171601 
-0.012894692 0.9984802 0.05358282 
-0.0033655032 0.9988803 0.047189977 
-0.01330484 0.9992307 0.036893174 
-0.029601963 0.99921256 0.02642108 
-0.049497835 0.9987179 0.010602759 
-0.0717519 0.99739367 -0.007584785 
-0.08770784 0.9960839 -0.011144212 
-0.08180914 0.9966408 0.0037981153 
-0.052961707 0.998253 0.026193257 
-0.025666729 0.9986117 0.04600046 
0.04564766 0.9962443 -0.073577784 
0.026988728 0.9979664 -0.057748284 
0.023233194 0.9987771 -0.043642722 
0.050856367 0.9985974 -0.014727189 
0.04744134 0.99762577 0.049922574 
0.010039089 0.99436206 0.10556279 
-0.014564225 0.99386615 0.10962738 
-0.028684711 0.99785733 0.058804546 
-0.051615525 0.9986459 0.00650941 
-0.087717354 0.9960895 -0.0105492305 
-0.09297711 0.9953569 -0.02489747 
-0.038305845 0.9989258 -0.02607503 
0.02082502 0.99978304 -0.00042466188 
0.037108317 0.999311 0.00073879247 
0.023287043 0.99935865 -0.027203137 
0.013607694 0.9990318 -0.04183773 
0.0122712925 0.9992584 -0.03649796 
-0.00028962086 0.99984854 -0.017404681 
-0.026886605 0.99960023 0.008752819 
-0.053225007 0.9978794 0.03747025 
-0.058412816 0.9960835 0.06637472 
-0.04533726 0.9959417 0.077748515 
-0.02759009 0.9973054 0.06797594 
-0.020521788 0.99852467 0.050273594 
-0.029386159 0.9989343 0.035591535 
-0.039235 0.9989869 0.022042165 
-0.05346155 0.9985606 0.0043132114 
-0.07341358 0.99721605 -0.013064659 
-0.087484114 0.9961191 -0.009657888 
-0.07991646 0.99665385 0.017158732 
-0.052356064 0.99720633 0.053276647 
-0.02734787 0.99605936 0.08436727 
-0.014216022 0.9995251 0.027340166 
-0.011144895 0.999795 0.016900524 
0.0073858416 0.9999719 0.0013177847 
0.03196814 0.999399 0.013406574 
0.020947576 0.99819714 0.05624638 
-0.008795155 0.9956696 0.09254622 
-0.026715156 0.9957197 0.08848024 
-0.044555202 0.9981012 0.042530913 
-0.068092205 0.9976509 0.007492042 
-0.08924339 0.9960069 0.0024308586 
-0.07091497 0.997416 -0.01150844 
-0.0038276433 0.9997696 -0.02111936 
0.057422377 0.9982944 -0.010531461 
0.07384054 0.997129 -0.016779216 
0.057099525 0.99760795 -0.0389628 
0.039511405 0.9982524 -0.04394343 
0.02132652 0.9993414 -0.029358124 
-0.011097975 0.9999338 -0.003071383 
-0.042741265 0.99873716 0.026404977 
-0.059547763 0.99657583 0.05736432 
-0.060298204 0.9945999 0.084471025 
-0.05204547 0.9946651 0.08906626 
-0.03902014 0.99648196 0.07416933 
-0.034173418 0.99786294 0.05569451 
-0.040977143 0.9983673 0.039795306 
-0.048599865 0.99862206 0.019798856 
-0.06402801 0.9979397 -0.0041173305 
-0.08148701 0.9964693 -0.020220026 
-0.086619645 0.99620587 -0.008419508 
-0.07679597 0.9966026 0.029761093 
-0.05809033 0.9950688 0.08039698 
-0.040888984 0.9915515 0.12310059 
-0.050647024 0.99871427 0.002198123 
-0.03585187 0.9993501 -0.003771113 
-0.00984517 0.99992734 -0.006968706 
0.0061685257 0.9999557 0.007108606 
-0.0046329643 0.99936557 0.035314735 
-0.020249 0.99793714 0.060922544 
-0.030262368 0.99788254 0.05757387 
-0.046639785 0.99869955 0.02059432 
-0.06298728 0.9980135 -0.0013104981 
-0.06597173 0.9978208 -0.0012393756 
-0.029494956 0.99947053 -0.013736495 
0.038503576 0.9990394 -0.020920835 
0.08743616 0.99612063 -0.009937803 
0.089496285 0.99589497 -0.01354999 
0.0641429 0.9975335 -0.028507255 
0.042413916 0.9987847 -0.025103152 
0.016766148 0.99983567 -0.0069105905 
-0.021074703 0.99965405 0.015739871 
-0.046709098 0.998123 0.0396075 
-0.054158695 0.9964001 0.06522038 
-0.052627493 0.99528044 0.08153029 
-0.04285666 0.99616814 0.076239526 
-0.02765177 0.9977026 0.061846714 
-0.025661299 0.99844354 0.049518593 
-0.038993675 0.99853027 0.03764256 
-0.05549572 0.99832153 0.016568324 
-0.075024664 0.9971565 -0.0070834337 
-0.08348881 0.9964007 -0.0146701345 
-0.07564081 0.99712294 0.004938709 
-0.065871835 0.996708 0.047268134 
-0.05598154 0.9928098 0.10580633 
-0.04469268 0.98680633 0.15561481 
-0.05100875 0.997568 -0.047500063 
-0.036688555 0.99848294 -0.04105872 
-0.019756338 0.99938446 -0.028991416 
-0.017505536 0.99971324 -0.01634418 
-0.027413143 0.99962413 -0.0005561376 
-0.026981782 0.99941367 0.021083158 
-0.020232834 0.9995343 0.02284213 
-0.022731343 0.99972445 -0.005872645 
-0.02925991 0.99937594 -0.019785985 
-0.02205718 0.99965584 -0.014206829 
0.016098231 0.9997377 -0.01629686 
0.06583801 0.99774 -0.013429233 
0.09101978 0.9958475 -0.0017482575 
0.07939105 0.9968172 -0.007250379 
0.051775403 0.99856097 -0.013973207 
0.031500522 0.9995017 0.0020356295 
0.0064045945 0.999775 0.020227266 
-0.026869172 0.9991202 0.03220101 
-0.045263253 0.9977975 0.048491433 
-0.04886798 0.99640167 0.06925201 
-0.040430307 0.9964801 0.07343539 
-0.017600665 0.99829185 0.055711057 
0.0030200947 0.9992537 0.038511854 
-0.0025544506 0.99957514 0.029036105 
-0.026611948 0.999381 0.023009695 
-0.048188668 0.99879056 0.009765504 
-0.061845385 0.99807847 -0.0038357088 
-0.060352884 0.99816793 -0.004291976 
-0.052199006 0.998586 0.010065173 
-0.048921596 0.99784285 0.043778483 
-0.04140276 0.99426275 0.098628595 
-0.031010674 0.9888922 0.1453637 
-0.03216353 0.9978849 -0.056490086 
-0.024090065 0.9986749 -0.045478426 
-0.019304154 0.99923867 -0.03390371 
-0.027698128 0.9991267 -0.03128577 
-0.03557355 0.9991026 -0.022992361 
-0.01976847 0.999804 0.0010937726 
0.0037544263 0.9999686 0.006991136 
0.006745153 0.9998672 -0.014837725 
-0.0055094133 0.9997801 -0.020231584 
-0.001814964 0.9999544 -0.009376457 
0.02916092 0.999538 -0.00857238 
0.06336848 0.99795824 -0.00799137 
0.07659421 0.9970376 -0.0070279036 
0.060591906 0.99797964 -0.019110214 
0.032740444 0.99933517 -0.01604184 
0.016443508 0.9998074 0.010716388 
0.0009577414 0.9996589 0.026103092 
-0.019243663 0.9993207 0.031431556 
-0.03544009 0.99813056 0.049794085 
-0.04324279 0.9962144 0.0754121 
-0.02596329 0.9968389 0.075087 
0.009716889 0.9987801 0.048416395 
0.029157264 0.99928737 0.023970919 
0.0111828465 0.99988747 0.01000273 
-0.020066798 0.99977106 0.007424186 
-0.035475235 0.99935216 0.0060695233 
-0.037312433 0.999301 0.0023099307 
-0.037772983 0.99928176 -0.003020339 
-0.050129626 0.9987372 -0.00333771 
-0.06892314 0.9974557 0.018212005 
-0.07758694 0.99541163 0.055999648 
-0.080957144 0.9934809 0.08025951 
-0.032260913 0.99880475 -0.036721077 
-0.0256546 0.99925864 -0.028709544 
-0.023037357 0.9994302 -0.02467152 
-0.03191078 0.9990988 -0.027991278 
-0.035738517 0.999182 -0.018927833 
-0.014641235 0.9998758 0.005842429 
0.007504105 0.99991524 0.010646461 
-0.0019952992 0.9999914 -0.0036235943 
-0.02476106 0.9996862 -0.0038065717 
-0.017320221 0.99984896 -0.0014760568 
0.021005224 0.9997019 -0.012451536 
0.057007052 0.99817187 -0.020077392 
0.06672858 0.9973804 -0.027926309 
0.04638664 0.9981075 -0.040371697 
0.01809485 0.999445 -0.027968658 
0.0071840007 0.99997234 0.0019386457 
0.0025482385 0.9999182 0.012535978 
-0.0095761055 0.99984527 0.014758613 
-0.03058554 0.99879336 0.038424548 
-0.03882423 0.9968398 0.06930481 
-0.007352563 0.99755424 0.06951009 
0.035917178 0.99830735 0.045744773 
0.044800743 0.9986999 0.024319783 
0.010357819 0.99986625 0.012661494 
-0.025421444 0.9995663 0.014870151 
-0.031724323 0.9993013 0.0197627 
-0.028898623 0.9994967 0.013093663 
-0.045505363 0.9989516 -0.0050027324 
-0.09271205 0.99559 -0.014324544 
-0.1601026 0.98710036 -0.00029547847 
-0.23473991 0.9720162 0.009041637 
-0.29663053 0.95497024 -0.0065118037 
-0.033561766 0.99941105 -0.007153118 
-0.026158154 0.9996537 -0.002886239 
-0.021608306 0.9997627 -0.002773305 
-0.0269346 0.99962884 -0.0041117133 
-0.031063775 0.99948174 0.008444712 
-0.022457657 0.9993158 0.029389145 
-0.020806003 0.9993017 0.031038212 
-0.043822993 0.99886674 0.018572662 
-0.061084818 0.9981099 0.00673187 
-0.03500349 0.9992999 -0.013214725 
0.0180392 0.9992502 -0.034260787 
0.056037314 0.9976547 -0.039306846 
0.058582067 0.99744296 -0.04093475 
0.03550556 0.9984524 -0.042805187 
0.012302005 0.9995959 -0.025630418 
0.007231267 0.999967 -0.0037116555 
0.007865688 0.9999622 -0.0037199028 
-0.0040526805 0.99996316 -0.0075665438 
-0.027233353 0.99953294 0.013864458 
-0.028617809 0.99883497 0.038855568 
0.010885364 0.9991158 0.040609404 
0.049893085 0.9982008 0.033256356 
0.046008464 0.99854755 0.028035728 
0.0043209717 0.999656 0.025871633 
-0.026580714 0.99913234 0.032063022 
-0.024883302 0.99910223 0.034287963 
-0.028765155 0.99945456 0.016224591 
-0.070949346 0.99740297 -0.012390299 
-0.16525471 0.9858725 -0.027318273 
-0.32602307 0.9448879 -0.029932214 
-0.5661942 0.82190883 -0.062370308 
-0.76500285 0.63283277 -0.11955488 
-0.016499402 0.9995821 0.023735452 
-0.0127661675 0.9996272 0.024139497 
-0.011609278 0.9997221 0.020516932 
-0.017184211 0.9996639 0.019415634 
-0.028321568 0.9990638 0.032704163 
-0.04039038 0.9978162 0.052262966 
-0.054296944 0.997163 0.052133996 
-0.06975825 0.99716604 0.028174592 
-0.066741005 0.99774104 -0.007644903 
-0.026828468 0.9988505 -0.039722323 
0.026710778 0.9983805 -0.050229676 
0.055202775 0.9977701 -0.03751817 
0.05048144 0.99846494 -0.022790072 
0.033780456 0.99928457 -0.017007627 
0.02111563 0.99972427 -0.010272483 
0.01847235 0.99979955 -0.0077284817 
0.014348517 0.99967414 -0.021115607 
-0.0056277816 0.9996009 -0.027683364 
-0.028354976 0.9995451 -0.0102747055 
-0.023797 0.9997096 0.003798982 
0.013517911 0.99988014 0.0075543113 
0.043938115 0.9989076 0.01591237 
0.03527161 0.99911016 0.023128698 
-0.0006313579 0.9996424 0.026737262 
-0.020322833 0.9991304 0.036405366 
-0.014230548 0.99923795 0.03634445 
-0.029783301 0.999499 0.010711238 
-0.09442741 0.99518996 -0.026083251 
-0.23325232 0.97055286 -0.06017049 
-0.51010436 0.8530884 -0.109699085 
-0.92175245 0.3414845 -0.18374145 
-0.90593004 -0.40467012 -0.124631464 
0.013445299 0.99942493 0.03113059 
0.009796007 0.9996493 0.024605408 
0.0015523544 0.9999407 0.010786049 
-0.008936253 0.999959 0.0015106518 
-0.024723927 0.99959904 0.013809464 
-0.042493287 0.9983419 0.038832217 
-0.04847685 0.99805236 0.039260723 
-0.041994516 0.99910975 0.0040398934 
-0.023435725 0.9991078 -0.03513513 
0.013747293 0.9988331 -0.046296127 
0.05190354 0.99823755 -0.028773854 
0.06407431 0.9979449 0.00075104134 
0.054872528 0.9983033 0.019482795 
0.042847987 0.9989911 0.013457028 
0.029846262 0.9995499 -0.0030494404 
0.01893565 0.9995989 -0.021056505 
0.004376493 0.99909854 -0.042224765 
-0.019064344 0.99883795 -0.044265237 
-0.033121325 0.9990729 -0.027501604 
-0.020685555 0.9996378 -0.017220197 
0.012487896 0.9998931 -0.007607283 
0.029874904 0.99951166 0.009166118 
0.012913414 0.99972785 0.019432947 
-0.017229501 0.99956566 0.02391303 
-0.023360603 0.9990234 0.037504062 
-0.010127486 0.999205 0.03856035 
-0.027091816 0.99957454 0.010809253 
-0.09142738 0.9953243 -0.031156048 
-0.2290802 0.9693626 -0.0886484 
-0.530731 0.82043016 -0.21264784 
-0.9232399 0.034393918 -0.38268155 
-0.6444053 -0.7369954 -0.2039108 
0.021203915 0.9996225 0.017474651 
0.010703245 0.99994266 -0.00040886554 
-0.0065460997 0.9994868 -0.031360254 
-0.018292818 0.9982818 -0.055668283 
-0.025203608 0.9985438 -0.04769904 
-0.02769725 0.9994791 -0.01656708 
-0.012700095 0.9998787 -0.009020281 
0.012462434 0.9992935 -0.03545597 
0.036121204 0.9981013 -0.04989221 
0.06223683 0.9976715 -0.027898774 
0.08230088 0.9965696 0.0087040365 
0.08230346 0.9958114 0.03982155 
0.071394034 0.9961983 0.04991937 
0.055598203 0.99804443 0.028569626 
0.031465847 0.9994973 -0.0038923603 
0.009845517 0.9994246 -0.032458596 
-0.010260506 0.9984381 -0.05492041 
-0.030878635 0.9980733 -0.053818468 
-0.036976025 0.9985141 -0.04003003 
-0.021284625 0.999369 -0.028435614 
0.0032682917 0.99995196 -0.009250606 
0.0065043415 0.9998918 0.013200405 
-0.013962481 0.9996842 0.020895028 
-0.035515882 0.9991453 0.021150062 
-0.032990977 0.9988182 0.035692226 
-0.015737556 0.99904144 0.04084885 
-0.02183097 0.9996321 0.016095186 
-0.059763357 0.9978703 -0.026137495 
-0.1463091 0.9846506 -0.09516719 
-0.36167043 0.8923181 -0.2701164 
-0.73794925 0.28097555 -0.6135826 
-0.57616824 -0.648822 -0.49705154 
0.0042159706 0.9999626 -0.007549877 
-0.008213774 0.9993986 -0.03368958 
-0.027356086 0.996705 -0.07635967 
-0.03414662 0.9932717 -0.11065898 
-0.026573451 0.9941158 -0.10501238 
-0.010978782 0.99771667 -0.06664052 
0.017010111 0.998784 -0.04627285 
0.044531558 0.9974546 -0.055690303 
0.06213722 0.99687743 -0.048727233 
0.07756444 0.9968941 -0.013630706 
0.08905219 0.9957821 0.022087172 
0.09138935 0.9946879 0.047371805 
0.08868062 0.9947094 0.051855538 
0.07210675 0.99702823 0.027118612 
0.041212674 0.9991286 -0.0066118436 
0.014159093 0.9992422 -0.036259297 
-0.009965073 0.9982286 -0.058655314 
-0.03249407 0.9975157 -0.0625044 
-0.043020755 0.99745667 -0.056828406 
-0.036875796 0.9985631 -0.03888356 
-0.024277015 0.9996918 -0.005192407 
-0.023931826 0.99948895 0.021192512 
-0.03247231 0.99924934 0.021130519 
-0.04279838 0.9989847 0.01406845 
-0.044511255 0.99856037 0.029932946 
-0.035940424 0.9983657 0.044432677 
-0.03117762 0.9991553 0.026774697 
-0.038271748 0.9991301 -0.016568974 
-0.06972757 0.9936044 -0.08881687 
-0.15534905 0.95486164 -0.2531919 
-0.3055225 0.72098637 -0.62196034 
-0.31173638 0.084552765 -0.9463991 
0.00284786 0.9997022 -0.02424063 
-0.0073599895 0.9987025 -0.05038999 
-0.024857631 0.99557966 -0.09057239 
-0.029872285 0.9922834 -0.120338805 
-0.018350352 0.9937907 -0.10974277 
-0.00023167137 0.9978254 -0.06591285 
0.020914832 0.999021 -0.038983397 
0.03500606 0.99849 -0.042336453 
0.041728094 0.9984584 -0.03660222 
0.050834395 0.99860257 -0.014446484 
0.063154 0.99798083 0.0067746793 
0.07873384 0.9966189 0.023488518 
0.09329864 0.99532264 0.025065932 
0.087398686 0.99616414 0.0043122973 
0.06284586 0.99775493 -0.02314225 
0.036442768 0.99818873 -0.0478664 
0.008947848 0.9978215 -0.065363064 
-0.018874433 0.9973621 -0.07008965 
-0.04250021 0.99711585 -0.06287915 
-0.055215213 0.9980303 -0.029781943 
-0.0568035 0.9982499 0.016448846 
-0.05177155 0.99798006 0.036817625 
-0.038359754 0.9990758 0.019400066 
-0.03301771 0.9994548 -0.0001996841 
-0.043944806 0.99892783 0.014563504 
-0.053916153 0.9976789 0.041591916 
-0.04679587 0.99809617 0.040177982 