# OOMMF OVF 2.0
# Segment count: 1
# Begin: Segment
# Begin: Header
# Title: m
# meshtype: rectangular
# meshunit: m
# xmin: 0
# ymin: 0
# zmin: 0
# xmax: 1.6e-07
# ymax: 1.6e-07
# zmax: 5e-09
# valuedim: 3
# valuelabels: m_x m_y m_z
# valueunits: 1 1 1
# Desc: Total simulation time:  7.85038110150544e-11  s
# xbase: 2.5e-09
# ybase: 2.5e-09
# zbase: 2.5e-09
# xnodes: 32
# ynodes: 32
# znodes: 1
# xstepsize: 5e-09
# ystepsize: 5e-09
# zstepsize: 5e-09
# End: Header
# Begin: Data Text
0.60679024 -0.7938144 -0.04079567 
0.8534073 -0.51990503 -0.037347764 
0.8433572 0.5337801 -0.061866246 
0.4127581 0.9047636 -0.10504133 
0.21474153 0.97004867 -0.113541394 
0.171802 0.9808634 -0.09160274 
0.16523547 0.9833609 -0.07548902 
0.16210328 0.9843432 -0.06921836 
0.15392473 0.98784566 -0.021637762 
0.10215245 0.9922275 0.071060464 
0.017143494 0.98853886 0.14999016 
-0.03527625 0.9842116 0.17344476 
-0.030271757 0.98451746 0.1726528 
-0.025405467 0.98574656 0.16630775 
-0.05431833 0.99000484 0.13015379 
-0.08327614 0.992539 0.08905848 
-0.08610063 0.9945942 0.058043726 
-0.06756005 0.9975661 0.017251777 
-0.039582044 0.99913216 -0.012971875 
-0.0064666877 0.99994785 -0.007901963 
0.037715144 0.9991221 0.018240105 
0.08534516 0.9956402 0.037641298 
0.10803054 0.99303526 0.047015045 
0.11133696 0.99200386 0.059433762 
0.119031414 0.9902285 0.07265762 
0.1475188 0.9870303 0.06331958 
0.19043991 0.98147154 0.021127364 
0.2144874 0.9764692 -0.022428952 
0.19522782 0.97988814 -0.04129691 
0.14232214 0.9893576 -0.030265188 
0.09862951 0.99511725 -0.0037331837 
0.080863275 0.9965657 0.017830335 
0.9006901 -0.42782456 -0.07565475 
0.99616945 0.016014189 -0.08596578 
0.63402915 0.7684288 -0.08674226 
0.29028 0.9520189 -0.09694148 
0.15631852 0.98255223 -0.10077623 
0.11862637 0.989294 -0.085000634 
0.10269109 0.99270993 -0.063100226 
0.108009726 0.9932917 -0.041299738 
0.12313117 0.99236816 0.0066538025 
0.10040044 0.99236757 0.071599714 
0.03911493 0.9928667 0.11263142 
-0.018645272 0.993229 0.11466772 
-0.041223574 0.99356043 0.10553815 
-0.049977634 0.993238 0.10478851 
-0.07015113 0.9924486 0.100620724 
-0.08800094 0.9919958 0.09055465 
-0.08541492 0.99387443 0.07012877 
-0.05907222 0.99775845 0.03144286 
-0.019724097 0.99980474 -0.0012168365 
0.019611351 0.999807 -0.0011989463 
0.05783975 0.9981422 0.01915403 
0.09141205 0.9951949 0.035084162 
0.10747598 0.9933893 0.040330995 
0.1127105 0.99263847 0.044332653 
0.12509508 0.9908665 0.050348453 
0.15034263 0.9877702 0.041318305 
0.18006578 0.98361665 0.0086371 
0.19326866 0.9807171 -0.029006612 
0.17367281 0.9835995 -0.0486804 
0.13061589 0.99044853 -0.04417239 
0.09799684 0.99485135 -0.025834652 
0.08862992 0.9960127 -0.010181979 
0.88791335 0.45915493 -0.02805006 
0.7034125 0.7097896 -0.03754563 
0.3738156 0.9261603 -0.049891863 
0.18326187 0.9809059 -0.065105535 
0.106927015 0.9917628 -0.07052132 
0.0641898 0.9962116 -0.058669195 
0.036043346 0.9986764 -0.03669171 
0.04685806 0.99885523 -0.009621543 
0.08325376 0.99591374 0.034994725 
0.092931904 0.9926008 0.07814907 
0.056352086 0.9948651 0.08407096 
-0.0060981875 0.9980616 0.06193441 
-0.05579187 0.9976633 0.039436806 
-0.07611396 0.9965092 0.034295037 
-0.08424378 0.99493164 0.054901257 
-0.094435535 0.9925061 0.07754817 
-0.096260235 0.9927178 0.072425604 
-0.06677922 0.9969783 0.039684314 
-0.0127028655 0.9998919 0.0074098455 
0.03864367 0.9992317 0.0065321866 
0.07651579 0.9967382 0.025658507 
0.100015424 0.9941612 0.040503945 
0.11316987 0.99267274 0.042348884 
0.12328595 0.99171317 0.03613495 
0.13926779 0.9897133 0.032743257 
0.15622033 0.9874042 0.025064461 
0.16696462 0.98594636 0.005719311 
0.16621573 0.9858051 -0.023679914 
0.14784405 0.9879249 -0.04633227 
0.11922113 0.9913998 -0.05396985 
0.10098337 0.9936282 -0.050053842 
0.098556474 0.994161 -0.043938704 
0.4742189 0.87895006 0.050629303 
0.36140686 0.9320032 0.027481226 
0.21647048 0.9762767 -0.0049531856 
0.1329684 0.9907658 -0.026507288 
0.08379106 0.99623245 -0.022361742 
0.030127041 0.99953794 -0.004039783 
-0.0053125066 0.999923 0.011222143 
0.006437119 0.99973035 0.022313375 
0.045225926 0.9979276 0.045772098 
0.06162033 0.9958677 0.066713095 
0.035168137 0.99786687 0.054999307 
-0.020251883 0.9994209 0.027346903 
-0.06712853 0.9977401 0.0029358761 
-0.0773262 0.9969952 -0.004613986 
-0.07530934 0.9969106 0.022315757 
-0.08733327 0.9946966 0.0543299 
-0.09647225 0.99373245 0.056470796 
-0.07197871 0.9968647 0.032862492 
-0.017639345 0.99981666 0.007453335 
0.03511856 0.9993522 0.007869602 
0.07057584 0.99717736 0.025619468 
0.0904087 0.9951458 0.038872097 
0.107518114 0.9934416 0.038906343 
0.12734607 0.9915006 0.026637722 
0.14623077 0.98906875 0.018963484 
0.15137205 0.9882745 0.02000049 
0.14129041 0.98982126 0.01706088 
0.12747298 0.9918376 -0.0029735013 
0.11342947 0.99315685 -0.02780998 
0.100113496 0.99391854 -0.045862384 
0.09464783 0.99396986 -0.0553696 
0.096970014 0.99354845 -0.05880917 
0.2606449 0.9647038 0.037563235 
0.21870717 0.97555345 0.021510648 
0.16404477 0.9864295 -0.00678927 
0.123069696 0.9921239 -0.023326797 
0.08088885 0.9966999 -0.0068101725 
0.028464045 0.9992987 0.024330419 
-0.0014866389 0.99919844 0.040003117 
0.008377322 0.9993274 0.03570162 
0.03423953 0.99888724 0.03243337 
0.034853738 0.99890435 0.031229826 
0.001194681 0.99983793 0.017969178 
-0.04329511 0.999052 0.004561364 
-0.06893649 0.99758273 -0.008749046 
-0.059255764 0.99817544 -0.011604872 
-0.0465085 0.99877614 0.016833032 
-0.05734661 0.9971467 0.049090926 
-0.07037541 0.996097 0.053274505 
-0.05916865 0.9977548 0.03137705 
-0.02091376 0.9997649 0.005726258 
0.021512154 0.9997675 -0.0014691218 
0.04820992 0.9988101 0.0073651453 
0.06297709 0.9978545 0.017900288 
0.08347763 0.99630713 0.02009202 
0.111991726 0.99364537 0.011262245 
0.13321999 0.9910674 0.006157426 
0.13060585 0.99131316 0.015507278 
0.10814306 0.99383354 0.024497977 
0.08689461 0.996102 0.015174294 
0.075994626 0.99709255 -0.005602427 
0.07129636 0.99709696 -0.026730387 
0.07282189 0.9964256 -0.04281278 
0.07679601 0.99571186 -0.051577326 
0.2122628 0.97435594 -0.074666046 
0.19050884 0.97957647 -0.064313814 
0.15602688 0.9857619 -0.062684156 
0.1143447 0.99170154 -0.058765627 
0.07281393 0.99671465 -0.035469998 
0.041405667 0.99914014 0.002155808 
0.028713064 0.9992701 0.025200188 
0.032543164 0.9992595 0.020531798 
0.040262055 0.99917746 0.0048465277 
0.025333412 0.99966156 -0.00592866 
-0.01705984 0.9998214 -0.008128989 
-0.05575229 0.99844354 -0.0014723734 
-0.07137983 0.99743724 -0.0049020443 
-0.05762678 0.99831545 -0.0067463433 
-0.033338126 0.9992621 0.019075178 
-0.02496358 0.99834436 0.051822316 
-0.029176269 0.9976984 0.06121067 
-0.028464008 0.99884546 0.038699146 
-0.007296915 0.99994725 0.007230247 
0.022728702 0.99967617 -0.011449355 
0.03666944 0.9992193 -0.014706955 
0.042090923 0.9990848 -0.007620468 
0.06170687 0.9980934 -0.0013656536 
0.09344911 0.9956227 -0.0016598873 
0.114607334 0.99340737 -0.0026609239 
0.107147776 0.9942126 0.007792753 
0.07820969 0.99676394 0.018573951 
0.05322034 0.99849826 0.012993462 
0.044014275 0.99902403 -0.0037157398 
0.04420542 0.99879605 -0.021271132 
0.050744638 0.9980872 -0.03531394 
0.05585378 0.9974847 -0.043642193 
0.2661754 0.9363904 -0.22874418 
0.23515552 0.9570625 -0.16950893 
0.18173918 0.97703266 -0.1112568 
0.113480814 0.9910857 -0.06979509 
0.061483122 0.9970741 -0.045420565 
0.051351294 0.9984171 -0.022944663 
0.059946194 0.9981973 -0.002918153 
0.058658168 0.99827754 0.0010844877 
0.04503659 0.99895746 -0.0074786437 
0.012109466 0.9998631 -0.011276988 
-0.035443794 0.99937 -0.0018223125 
-0.06946845 0.99750125 0.012864711 
-0.08392346 0.99644685 0.0071137724 
-0.06997355 0.9975433 -0.0033554323 
-0.030629165 0.9994129 0.0153549295 
-0.00067526306 0.99883187 0.048317485 
0.0019195547 0.9981686 0.060463004 
-0.0052802274 0.99931544 0.036617845 
0.0052668564 0.9999833 0.002384296 
0.02761831 0.99940234 -0.020788305 
0.03590888 0.99893504 -0.028971722 
0.03882386 0.9990175 -0.021375397 
0.05730942 0.998328 -0.0075520556 
0.085001156 0.9963791 0.0019212947 
0.0984914 0.9951378 0.0005768904 
0.083746396 0.9964857 0.001729184 
0.051086817 0.9986801 0.0053221066 
0.026547413 0.99964714 -0.0009517747 
0.020725606 0.9996844 -0.014197957 
0.026469547 0.9992782 -0.027249878 
0.039073955 0.99850714 -0.038167287 
0.047149025 0.99789673 -0.04448935 
0.3064007 0.85561883 -0.41717526 
0.25401613 0.92476124 -0.28335917 
0.17856054 0.9723423 -0.15055442 
0.098595954 0.9928904 -0.06669078 
0.048930377 0.9981583 -0.0358616 
0.057175912 0.9978994 -0.030458393 
0.08428646 0.99623495 -0.020294527 
0.08284355 0.9965504 -0.004940788 
0.048126813 0.9988157 0.007148163 
-0.006315067 0.9997665 0.020665158 
-0.055563163 0.99773765 0.037846398 
-0.08143875 0.9954326 0.049816985 
-0.096619345 0.99471843 0.03464256 
-0.08575902 0.9963032 0.0050305435 
-0.03765526 0.99928427 0.0036166895 
0.0050078905 0.9995538 0.02944712 
0.008307087 0.9991343 0.04076374 
-0.006980281 0.9998377 0.016612126 
-0.0028858376 0.99988604 -0.0148237655 
0.019149309 0.9993016 -0.032088745 
0.03446323 0.9988676 -0.032801393 
0.04603921 0.9987857 -0.017538039 
0.06603301 0.99780184 0.0055733756 
0.08598992 0.9960813 0.02068181 
0.08799478 0.99602675 0.013697095 
0.0671277 0.99774015 0.0029442455 
0.034867313 0.99939126 -0.0011977488 
0.012795855 0.9998769 -0.009086786 
0.009939234 0.9997189 -0.021527363 
0.020908467 0.9992236 -0.033395804 
0.038980674 0.9982966 -0.043410517 
0.05040533 0.99755186 -0.04847281 
0.28526983 0.5592164 -0.77839476 
0.19682735 0.8253394 -0.52922016 
0.10452996 0.9629299 -0.24867576 
0.04236705 0.9942831 -0.098011926 
0.028600896 0.99857026 -0.04516023 
0.07104697 0.99683493 -0.0356713 
0.11453948 0.9932079 -0.020470032 
0.1077745 0.9941162 0.010848332 
0.052500788 0.9977171 0.042478584 
-0.018407857 0.9975482 0.06751906 
-0.065992326 0.99428934 0.083867036 
-0.08678182 0.9924518 0.08665177 
-0.108602144 0.99226475 0.06013485 
-0.10556292 0.99433863 0.012137059 
-0.054947156 0.9984429 -0.009623897 
-0.005336675 0.9999631 0.006738664 
-0.0005440064 0.999878 0.015613232 
-0.018868439 0.9998028 -0.0061943023 
-0.015988486 0.9994621 -0.028634913 
0.009750828 0.999395 -0.03338613 
0.03475718 0.99912256 -0.023368493 
0.05646124 0.99839956 -0.0032278188 
0.07697191 0.99679565 0.021768108 
0.088289164 0.9955434 0.033141382 
0.082448594 0.99644977 0.017033089 
0.061520196 0.9981057 -0.00055304106 
0.03232414 0.99945587 -0.0065640206 
0.011573352 0.99983066 -0.014315391 
0.00926225 0.9995927 -0.026994994 
0.020471226 0.99905926 -0.038229525 
0.036816664 0.99826294 -0.0459955 
0.047179446 0.99770194 -0.04863145 
0.083825484 -0.49175498 -0.8666894 
0.017245436 0.34147733 -0.93973184 
-0.030704746 0.8994474 -0.4359491 
-0.039939098 0.986917 -0.1562037 
-0.006750821 0.9978499 -0.06519196 
0.071783334 0.9962803 -0.047674935 
0.13285325 0.9908339 -0.024457721 
0.12474654 0.9919222 0.022995148 
0.061200358 0.99568546 0.069749914 
-0.01359503 0.9949047 0.09989962 
-0.06140443 0.9921625 0.10882573 
-0.086840354 0.99122447 0.09966404 
-0.11983746 0.9906414 0.06533469 
-0.12163237 0.9925419 0.0081390245 
-0.065092735 0.9976247 -0.022539603 
-0.0098063 0.99994236 -0.0043903757 
-0.0064907786 0.9999042 0.012225532 
-0.027420513 0.9996223 -0.00183569 
-0.023527972 0.9995717 -0.017409584 
0.0062104654 0.99980974 -0.018489836 
0.040359437 0.99913335 -0.0101801595 
0.07009282 0.99753654 0.002818931 
0.08770522 0.9959554 0.019508619 
0.08916263 0.99576 0.022629285 
0.07726092 0.99700403 0.003711071 
0.057182584 0.99830353 -0.010970003 
0.03119797 0.9994157 -0.013961231 
0.01294857 0.99974436 -0.018537369 
0.010582321 0.99958503 -0.026792139 
0.01731436 0.9992988 -0.033199657 
0.026023773 0.9990082 -0.036132537 
0.031902816 0.9988577 -0.035575032 
-0.16935596 -0.8156397 -0.5532183 
-0.30334976 -0.24242805 -0.9215246 
-0.22443819 0.7880756 -0.5732055 
-0.113244 0.9697792 -0.21611132 
-0.026319165 0.9953887 -0.09224302 
0.06834613 0.99540764 -0.067026936 
0.13001943 0.99070895 -0.039885677 
0.12108223 0.992463 0.018875595 
0.062434793 0.99498504 0.078145616 
-0.0037367127 0.9939725 0.10956632 
-0.04523436 0.99330974 0.10625267 
-0.06894441 0.9940053 0.084854096 
-0.10272555 0.99343556 0.050331287 
-0.10481148 0.99449146 -0.0011327976 
-0.052050125 0.9982864 -0.026742494 
-0.0073976405 0.99997264 0.0001766832 
-0.014281645 0.99954385 0.026612414 
-0.035559244 0.9991734 0.019701948 
-0.026288165 0.9996273 0.007362051 
0.00790645 0.99996185 0.0037087614 
0.047517147 0.99886405 0.0035594467 
0.077811606 0.9969593 0.004172887 
0.08697529 0.99616355 0.009673621 
0.07852446 0.99689126 0.006470933 
0.06404526 0.9978942 -0.010265331 
0.04996981 0.9985851 -0.018189995 
0.03372667 0.9993387 -0.013595218 
0.02379065 0.9996751 -0.009153777 
0.02335191 0.9996857 -0.009126794 
0.024726152 0.9996391 -0.010504465 
0.024499357 0.9996503 -0.009951791 
0.024131289 0.9996824 -0.007270701 
-0.44883806 -0.6771885 -0.583061 
-0.55863905 -0.05616211 -0.8275072 
-0.33136174 0.8060969 -0.49031347 
-0.14327213 0.97062373 -0.19329485 
-0.030105174 0.99531364 -0.09189394 
0.05489027 0.99537593 -0.07882826 
0.100444205 0.99337643 -0.05580615 
0.09163984 0.995744 0.00979959 
0.049338505 0.9957583 0.07766073 
0.0047078566 0.9941395 0.10800235 
-0.01974278 0.99550956 0.09257985 
-0.03436069 0.99756175 0.06074556 
-0.0649964 0.99748504 0.028269043 
-0.06914463 0.9974746 -0.01623087 
-0.026828762 0.9989708 -0.036573377 
0.00040272248 0.9999928 -0.0037885525 
-0.018810457 0.99939007 0.029425614 
-0.03996599 0.99867004 0.03257018 
-0.026907988 0.9992317 0.028496109 
0.007027172 0.99967504 0.024506308 
0.044384833 0.99885905 0.017626729 
0.067935854 0.99763036 0.010880222 
0.068045326 0.9976111 0.0119149685 
0.056197 0.9983982 0.006561523 
0.046830736 0.9988647 -0.008733637 
0.04398101 0.99896365 -0.01172207 
0.040949907 0.99916035 0.001352134 
0.04290978 0.9989745 0.014445839 
0.04754294 0.99867606 0.019641725 
0.04556924 0.99877775 0.019146489 
0.036502972 0.9991583 0.018714435 
0.027871445 0.99938715 0.021180958 
-0.67485285 0.21554758 -0.7057712 
-0.48196536 0.65117127 -0.58624697 
-0.24250197 0.92569983 -0.29029742 
-0.102136135 0.9875055 -0.12000522 
-0.015777059 0.99738985 -0.07046124 
0.03584636 0.9963535 -0.07742601 
0.060669784 0.9963907 -0.059371106 
0.058147743 0.9982698 0.0087436 
0.037605613 0.9963635 0.07645732 
0.017211404 0.9948464 0.09992176 
0.009885892 0.99718094 0.07438106 
0.0009566412 0.99928224 0.03787181 
-0.030215822 0.99949354 0.009988576 
-0.039754167 0.9988097 -0.028262397 
-0.010171644 0.9988871 -0.04605597 
0.0017143429 0.9999022 -0.013879873 
-0.02272418 0.99949354 0.022281395 
-0.037564896 0.9986586 0.035635985 
-0.018861817 0.9991239 0.037359092 
0.012724179 0.9994487 0.03066669 
0.04217408 0.99890643 0.02018329 
0.05616693 0.9983151 0.014575416 
0.051334236 0.99852437 0.01771773 
0.04139898 0.9990718 0.011908042 
0.03576557 0.9993596 -0.0011405014 
0.035493616 0.9993657 0.0028997634 
0.037893254 0.998983 0.02443784 
0.048429973 0.997982 0.04106891 
0.058626935 0.99722123 0.045964032 
0.05668942 0.9975076 0.04201162 
0.04256022 0.99846554 0.035428792 
0.028099451 0.9990167 0.034295235 
-0.36722866 0.83076274 -0.41830185 
-0.24302894 0.92469317 -0.29305232 
-0.13330348 0.98015714 -0.14670438 
-0.054928984 0.9958397 -0.072706185 
-0.0026053095 0.9980552 -0.06228252 
0.020186892 0.9964316 -0.08195454 
0.038554724 0.9971419 -0.06497322 
0.051255956 0.99867785 0.0039204895 
0.049739826 0.99648356 0.06742753 
0.042261288 0.99546504 0.08522625 
0.037897326 0.9976299 0.05743322 
0.02188378 0.999432 0.025628328 
-0.019371834 0.999797 0.005554509 
-0.03736843 0.9989286 -0.027300727 
-0.015602649 0.9990154 -0.04153102 
-0.007345526 0.9999256 -0.009742656 
-0.024241352 0.9994046 0.02455323 
-0.026116485 0.99901175 0.035966784 
-0.0005048782 0.9995353 0.030478248 
0.02980166 0.99944586 0.014832107 
0.05364007 0.9985589 0.0016961272 
0.06260787 0.9980374 0.0012637085 
0.05722068 0.99832135 0.0089686075 
0.04683642 0.9988756 0.007347698 
0.033632684 0.9994237 0.0046116817 
0.023630003 0.99949884 0.021063494 
0.02533365 0.9984538 0.049478907 
0.040731303 0.99698555 0.06603619 
0.055644657 0.99608654 0.06866851 
0.058077686 0.9966172 0.058148116 
0.04695534 0.9980546 0.041015204 
0.03371792 0.9988945 0.03275436 
-0.12367198 0.96152663 -0.24529955 
-0.08516327 0.981827 -0.1695966 
-0.050237715 0.994384 -0.093149304 
-0.010266414 0.9983654 -0.05622575 
0.012311686 0.99816316 -0.059319988 
0.019276075 0.99618673 -0.08509054 
0.043566126 0.9966109 -0.069777854 
0.06826291 0.9976549 -0.0049950285 
0.071477465 0.996163 0.05050135 
0.059228085 0.9962163 0.063602336 
0.044935655 0.9982465 0.03853325 
0.01676109 0.999744 0.015202519 
-0.032565273 0.99946404 0.0033430045 
-0.05287314 0.99838084 -0.020981913 
-0.031728547 0.9991353 -0.026869373 
-0.017485779 0.99983966 0.0038787134 
-0.019803826 0.99936694 0.029556027 
-0.008931913 0.99946344 0.031514887 
0.02304881 0.9995807 0.017532276 
0.0566303 0.998393 -0.0021494003 
0.0786041 0.9968032 -0.0143123465 
0.081304014 0.99659765 -0.0135206375 
0.07094881 0.9974459 -0.00825541 
0.05587801 0.99841535 -0.006666598 
0.037373494 0.99929297 0.0040949085 
0.026826074 0.99909794 0.03291813 
0.031016871 0.9973129 0.0663701 
0.045242656 0.99536324 0.08488367 
0.062113203 0.9944461 0.08496504 
0.07334165 0.99542785 0.061191943 
0.07236729 0.99708134 0.02432662 
0.06489338 0.9978912 0.0014932868 
0.010584974 0.99147385 -0.12987547 
0.0078023016 0.9959739 -0.08930419 
0.0044613043 0.99887544 -0.04720193 
0.016856745 0.9995143 -0.02621335 
0.023157788 0.9988467 -0.0420601 
0.032830365 0.996707 -0.07414439 
0.06106241 0.9964069 -0.058690466 
0.080926895 0.99671245 -0.0038887304 
0.076775104 0.9963997 0.03596343 
0.05483174 0.997619 0.041832883 
0.030716663 0.9993502 0.018863577 
-0.0056348504 0.9999842 0.0001015155 
-0.056289192 0.9983842 -0.007782643 
-0.07180691 0.99710804 -0.024890156 
-0.046571 0.99863696 -0.023567036 
-0.023643447 0.99970376 0.0057912897 
-0.012414587 0.99963653 0.023931341 
0.009733792 0.9997189 0.021621091 
0.050683834 0.99866956 0.009502268 
0.08817827 0.99609464 -0.004491449 
0.10233146 0.9946497 -0.014156809 
0.09205365 0.99557966 -0.01863854 
0.07432501 0.9970492 -0.019200962 
0.056970324 0.9982815 -0.01373389 
0.042724308 0.9990729 0.0052885814 
0.04017032 0.998631 0.033505518 
0.043994553 0.997109 0.061952636 
0.052029762 0.99541557 0.08025411 
0.07060274 0.9945239 0.077055946 
0.09019381 0.9951531 0.0391862 
0.09634151 0.99519914 -0.017235227 
0.09159143 0.99429315 -0.054700937 
0.050569337 0.9983697 -0.02647014 
0.031056494 0.99945796 -0.010920201 
0.014257127 0.99985975 0.008792293 
0.019131543 0.9997294 0.01323879 
0.027692858 0.99945503 -0.017969279 
0.038590647 0.9981855 -0.04622343 
0.053315 0.99827385 -0.024635956 
0.06140519 0.99801725 0.013826598 
0.056505386 0.99787146 0.032554124 
0.035586745 0.99897724 0.027892925 
0.009679315 0.9999529 0.00071380974 
-0.030068446 0.9993442 -0.020175634 
-0.074827716 0.9968018 -0.028052662 
-0.08050333 0.9959318 -0.040484354 
-0.053194474 0.9979298 -0.036144093 
-0.02637398 0.99958134 -0.011903931 
-0.005311523 0.99998486 0.0014308561 
0.028475987 0.99958605 0.004123249 
0.07677145 0.9970453 0.0026466043 
0.11029819 0.993897 -0.0017482877 
0.1111343 0.9937631 -0.009171945 
0.08910655 0.99590826 -0.0150584 
0.06618218 0.99775046 -0.010675468 
0.047272783 0.99888176 0.000783969 
0.03831884 0.999161 0.014459247 
0.03929721 0.99885595 0.027248 
0.037383538 0.99826413 0.045510586 
0.041336607 0.9970751 0.06428514 
0.06159702 0.9962679 0.060465775 
0.07996306 0.9966655 0.01624726 
0.08129955 0.9956245 -0.046068903 
0.07300345 0.9935475 -0.08679787 
0.02953939 0.99849975 0.046104852 
0.0076689078 0.99877757 0.0488323 
-0.004196603 0.9986007 0.05271794 
0.007352397 0.9992722 0.037431195 
0.018934501 0.99981993 -0.001314504 
0.01880231 0.9997404 -0.012867715 
0.017940264 0.9997301 0.01476389 
0.025029404 0.999125 0.033508264 
0.029182862 0.9990499 0.03236833 
0.015063946 0.9997511 0.016458444 
-0.01254325 0.9997986 -0.01566821 
-0.053570356 0.9979107 -0.03611871 
-0.08403403 0.9955308 -0.04309125 
-0.073598444 0.99578094 -0.054804638 
-0.042845592 0.99767196 -0.053056013 
-0.017857654 0.99931186 -0.032510813 
0.00442744 0.9998869 -0.014377565 
0.043764908 0.9990296 -0.0049595684 
0.08923607 0.9959984 -0.004931359 
0.108296886 0.99406266 -0.010543525 
0.09592445 0.99523056 -0.017740011 
0.07076431 0.9974025 -0.013444465 
0.051371686 0.99866277 0.005797989 
0.03801829 0.9990915 0.019256745 
0.034356948 0.99920136 0.020401895 
0.031577323 0.9992638 0.021788476 
0.020693438 0.9990917 0.03725014 
0.020399405 0.99818045 0.056742173 
0.034578945 0.99811906 0.05062387 
0.040433496 0.9991373 0.009483338 
0.033303324 0.99874246 -0.0374769 
0.024589928 0.9977168 -0.06290197 
-0.0015288753 0.9969951 0.077450134 
-0.017054401 0.9969476 0.07618956 
-0.017524458 0.997403 0.06985889 
0.0013042087 0.999071 0.04307531 
0.011399575 0.99985415 0.01272289 
0.003017977 0.9998035 0.0195942 
-0.00286485 0.99901134 0.044365928 
0.004210052 0.99901366 0.04420562 
0.007401626 0.9995657 0.028522827 
-0.009349688 0.9999428 0.0052119084 
-0.040756702 0.99888694 -0.023745256 
-0.0744551 0.99653864 -0.036977284 
-0.07918607 0.99595696 -0.042419534 
-0.04632496 0.997449 -0.05431036 
-0.01408962 0.99846464 -0.0535713 
-0.0018787007 0.9994416 -0.033360247 
0.013657621 0.9998256 -0.012738295 
0.052633777 0.9985891 -0.0070475605 
0.08570872 0.9962111 -0.0147492755 
0.08482018 0.99604356 -0.026512604 
0.062155727 0.99753976 -0.03242093 
0.039568942 0.9990856 -0.016197909 
0.02958935 0.99952054 0.009123637 
0.028922403 0.99950004 0.012774052 
0.031721797 0.9994901 0.003655966 
0.024278827 0.9996684 0.00857567 
0.006015659 0.9995132 0.030612996 
-0.003058982 0.9988642 0.047550697 
-0.009292846 0.99922913 0.038141552 
-0.02991001 0.9993998 0.017480657 
-0.053193484 0.9984661 0.015360414 
-0.06317088 0.9976734 0.025638625 
-0.008553123 0.9986288 0.05164634 
-0.017269352 0.99849993 0.05195907 
-0.012042473 0.9988075 0.04731472 
0.0076145167 0.9995306 0.029677214 
0.017119449 0.99970776 0.017067492 
0.011195761 0.99955064 0.027806984 
0.0065438533 0.9992346 0.03856668 
0.008915822 0.9995598 0.028296627 
0.0035702991 0.9999215 0.012013711 
-0.017037354 0.9998452 -0.0044034896 
-0.04530449 0.9988305 -0.016885836 
-0.06564444 0.9976566 -0.019293953 
-0.052633777 0.9983335 -0.023664955 
-0.014716659 0.9992294 -0.036389366 
0.0035332788 0.9992294 -0.039094146 
-0.002188533 0.9997418 -0.022618763 
0.009669294 0.9999474 -0.0034208854 
0.046845686 0.99890214 5.179453e-05 
0.06852644 0.9975733 -0.012314073 
0.056590714 0.9978718 -0.032395523 
0.0312796 0.9986619 -0.041184086 
0.010578776 0.9997135 -0.021472316 
0.0068460945 0.9999739 -0.0023097377 
0.017866561 0.99975866 -0.012784885 
0.024901701 0.9993903 -0.024474872 
0.012699094 0.99987537 -0.009379793 
-0.012182902 0.9997327 0.019651921 
-0.034220897 0.99878645 0.035421252 
-0.070707574 0.9967509 0.038576625 
-0.13358922 0.9884398 0.071698315 
-0.19070733 0.96948355 0.15405354 
-0.21038368 0.951547 0.22427024 
0.00999869 0.9999395 -0.0045992294 
0.0009010244 0.99999934 0.0006974521 
0.0017040231 0.9999698 0.0075825495 
0.017717218 0.99981785 0.0071084835 
0.029043663 0.99957764 0.000991494 
0.028738236 0.99958616 -0.0013266552 
0.029453525 0.9995647 -0.0017681373 
0.03447411 0.9993995 -0.003509949 
0.028466988 0.99958956 -0.00321196 
0.00998717 0.99994916 -0.0014345926 
-0.014256301 0.9998972 0.001590225 
-0.035149302 0.9993818 0.00083446084 
-0.031895228 0.9994578 -0.0081807505 
-0.010474767 0.99968034 -0.02301182 
-0.0090748975 0.99963695 -0.025368927 
-0.021419004 0.99974346 -0.0073719914 
-0.0077002863 0.99989516 0.012267527 
0.026960326 0.99952054 0.015228336 
0.046094444 0.9989333 -0.0027355214 
0.03750954 0.9988281 -0.030584604 
0.016836666 0.99909645 -0.039024055 
-0.0030668832 0.99982715 -0.018338824 
-0.002979684 0.9999521 -0.0093280645 
0.0149122095 0.99942774 -0.030362235 
0.021517852 0.99895406 -0.040347584 
0.004267228 0.9997851 -0.020285072 
-0.024517357 0.99965024 0.009922162 
-0.05667639 0.99795103 0.029690767 
-0.12539771 0.99008965 0.06322912 
-0.24840453 0.9521327 0.1781533 
-0.37014195 0.8407357 0.39516917 
-0.42038178 0.7030502 0.5735849 
0.011252631 0.999222 -0.037800405 
-0.0007028736 0.999632 -0.027121523 
-0.0054374277 0.99992746 -0.010747728 
0.007420544 0.99996686 -0.0033657525 
0.019658703 0.9996974 -0.014787932 
0.022677796 0.9992675 -0.030826248 
0.03241959 0.9989209 -0.03325648 
0.04795745 0.99862176 -0.021325374 
0.046956737 0.99887884 -0.0060210195 
0.029699987 0.99954593 0.0051057176 
0.003730624 0.9999795 0.0052242232 
-0.024423137 0.99966097 -0.009028894 
-0.031297777 0.9991717 -0.026008626 
-0.017624779 0.99923825 -0.0348195 
-0.018960727 0.99954426 -0.023492923 
-0.029112011 0.99956787 0.0040667295 
-0.019102432 0.99950236 0.025105927 
0.004281743 0.9996003 0.027943494 
0.01861529 0.9997742 0.010245292 
0.01610373 0.9997647 -0.014536528 
0.003875913 0.99979067 -0.020087902 
-0.009090231 0.99992883 -0.0077348393 
0.00031178223 0.9999052 -0.013764958 
0.02393617 0.99898416 -0.038182568 
0.027858777 0.998813 -0.039956614 
0.0052828323 0.999834 -0.017438982 
-0.02857767 0.99957407 0.0059130127 
-0.07395183 0.99696463 0.0243466 
-0.17706697 0.9809267 0.08018916 
-0.37249058 0.8916819 0.25720477 
-0.59026164 0.54823744 0.5924753 
-0.62208664 -0.0011777909 0.78294754 
-0.006617903 0.9991264 -0.041265238 
-0.01703083 0.999518 -0.025958026 
-0.020821769 0.99978113 -0.0020478715 
-0.0073383814 0.9999161 0.0106861545 
0.0028724081 0.99999034 -0.0033525424 
0.0007355777 0.99968725 -0.024996983 
0.010278694 0.99958503 -0.02690862 
0.028294954 0.99954367 -0.010581666 
0.025545502 0.99965507 0.0061052865 
0.0051066247 0.9999494 0.0086724395 
-0.018983675 0.99971956 -0.0141611975 
-0.038589124 0.9979557 -0.050945133 
-0.034112453 0.9968009 -0.0722791 
-0.013531445 0.9976307 -0.06745248 
-0.010522367 0.9992533 -0.037178405 
-0.018486625 0.99982804 0.0014753554 
-0.019939708 0.9994637 0.025977677 
-0.015494416 0.9992629 0.035121527 
-0.009539937 0.9995563 0.028216438 
-0.006505222 0.9998946 0.012981168 
-0.009620306 0.9999383 0.0055525424 
-0.012907817 0.9999108 0.0034399098 
0.0074689738 0.999884 -0.013271868 
0.035234403 0.99881804 -0.03348429 
0.036420844 0.99894404 -0.028006842 
0.009406032 0.99991 -0.0095705865 
-0.03261525 0.99946547 0.0022613602 
-0.09557406 0.99530905 0.015016853 
-0.22934444 0.9712637 0.06362469 
-0.4990014 0.8416516 0.20644672 
-0.8423153 0.27377596 0.46427548 
-0.73008716 -0.51237804 0.45215213 
-0.02279154 0.9991755 -0.033600178 
-0.028128996 0.999537 -0.01160496 
-0.026220433 0.99941045 0.022167096 
-0.0110193975 0.9990435 0.042316895 
-0.007497001 0.9994812 0.031324722 
-0.022223597 0.99970216 0.01009407 
-0.02233591 0.9997398 0.0046240166 
-0.01130977 0.999849 0.013194287 
-0.020064563 0.99961793 0.019011667 
-0.041028686 0.9991566 0.001705348 
-0.054383688 0.9973843 -0.047613304 
-0.053509146 0.9937376 -0.09809486 
-0.03288678 0.99287367 -0.11454461 
-0.009479406 0.9952707 -0.09667661 
-0.0053076483 0.9984893 -0.054690614 
-0.011436169 0.9998903 -0.009410038 
-0.019021587 0.9995678 0.02241461 
-0.022273416 0.99881786 0.043209065 
-0.01750338 0.99867904 0.04830993 
-0.009899042 0.99915373 0.039924238 
-0.0094499 0.99958533 0.027202103 
-0.009032655 0.9998694 0.013408235 
0.015097486 0.9998668 -0.006205351 
0.041868176 0.99889064 -0.021556221 
0.042208947 0.9989351 -0.018631684 
0.018961461 0.99973774 -0.012846478 
-0.021201365 0.9996856 -0.01339257 
-0.09271372 0.9956578 -0.008358043 
-0.24681422 0.96901906 0.009210228 
-0.57119304 0.8195528 0.045516115 
-0.986314 0.12754409 0.1044855 
-0.7627695 -0.6392449 0.09771742 
-0.039853025 0.9986323 -0.03384151 
-0.040232234 0.9991758 -0.005414912 
-0.034378774 0.9987262 0.0369335 
-0.021011807 0.99776155 0.06348703 
-0.024691127 0.9980692 0.05699309 
-0.047852214 0.99823993 0.035031427 
-0.05407825 0.99836206 0.018678574 
-0.045838542 0.99887055 0.012508764 
-0.05033538 0.99871105 0.006521331 
-0.059980724 0.99793935 -0.022791818 
-0.05855468 0.9951887 -0.07855554 
-0.04676358 0.9916465 -0.1202094 
-0.02946767 0.99203986 -0.12242857 
-0.019090874 0.9950338 -0.09769033 
-0.020239413 0.9980987 -0.058219254 
-0.024584739 0.9995567 -0.01679675 
-0.02842912 0.99941456 0.019034982 
-0.023063447 0.99862194 0.04714251 
-0.0077305064 0.99840564 0.055915136 
0.0075086746 0.9988715 0.046898596 
0.008604607 0.9995142 0.029954191 
0.006250415 0.9998492 0.01620728 
0.026196256 0.999618 0.008824507 
0.046995644 0.9988807 0.005367578 
0.04412729 0.9990256 0.0008544921 
0.026481463 0.99955285 -0.013893896 
0.0004340497 0.9995558 -0.029799668 
-0.05336899 0.99804705 -0.03246386 
-0.1831144 0.9823376 -0.038496953 
-0.46997976 0.87970454 -0.07238127 
-0.91553277 0.38396445 -0.119879216 
-0.94200486 -0.32783777 -0.07175813 
-0.06125427 0.9976904 -0.029357111 
-0.060745414 0.9981534 0.00014763357 
-0.056954775 0.9974704 0.04253235 
-0.04894088 0.9964945 0.0678507 
-0.05513494 0.9966255 0.06081134 
-0.07581347 0.99656296 0.033386413 
-0.07854773 0.9969038 0.0036304744 
-0.06308037 0.9979017 -0.014597417 
-0.049994882 0.998467 -0.023754252 
-0.0410022 0.9980098 -0.047909427 
-0.032550767 0.9956735 -0.08703308 
-0.028747596 0.9938469 -0.1069678 
-0.0309258 0.99464005 -0.09866489 
-0.039588224 0.99610656 -0.07876955 
-0.04991304 0.9972894 -0.054061882 
-0.05732932 0.9980999 -0.022579068 
-0.055956855 0.99832594 0.014633724 
-0.03352751 0.99844927 0.04444212 
0.0027478356 0.998699 0.050918758 
0.032894664 0.9987404 0.037891418 
0.037802253 0.99910104 0.01918649 
0.030210208 0.9994446 0.014068994 
0.039954174 0.9987889 0.028715098 
0.053367972 0.997655 0.042855002 
0.04890912 0.9983124 0.0313103 
0.034028884 0.9994134 -0.0038663296 
0.019125037 0.9992993 -0.032174252 
-0.0070494576 0.9992675 -0.037615016 
-0.07417113 0.9962455 -0.044650212 