# OOMMF OVF 2.0
# Segment count: 1
# Begin: Segment
# Begin: Header
# Title: m
# meshtype: rectangular
# meshunit: m
# xmin: 0
# ymin: 0
# zmin: 0
# xmax: 1.6e-07
# ymax: 1.6e-07
# zmax: 5e-09
# valuedim: 3
# valuelabels: m_x m_y m_z
# valueunits: 1 1 1
# Desc: Total simulation time:  6.857844421874458e-11  s
# xbase: 2.5e-09
# ybase: 2.5e-09
# zbase: 2.5e-09
# xnodes: 32
# ynodes: 32
# znodes: 1
# xstepsize: 5e-09
# ystepsize: 5e-09
# zstepsize: 5e-09
# End: Header
# Begin: Data Text
0.18825954 -0.6727155 0.7155503 
0.22712211 -0.34359556 0.9112397 
0.12773627 0.5952745 0.79330426 
0.010020626 0.8990976 0.43763348 
-0.09436242 0.9648594 0.24523863 
-0.1493563 0.98425406 0.09453371 
-0.13422 0.99025947 -0.03703103 
-0.085948244 0.9893249 -0.117682315 
-0.03443644 0.9872717 -0.15526995 
0.016283717 0.9871508 -0.15895961 
0.049969118 0.98970723 -0.13410027 
0.077182576 0.9901465 -0.116845265 
0.12503089 0.9864742 -0.105999775 
0.17767933 0.98096955 -0.078286394 
0.20068581 0.9787108 -0.043018542 
0.1757215 0.98417026 -0.023039777 
0.10816284 0.9939511 -0.019028688 
0.03264006 0.9991309 -0.02592341 
-0.017807027 0.9985955 -0.04989915 
-0.0462547 0.9957965 -0.07905619 
-0.06796883 0.9932425 -0.09407223 
-0.08641007 0.99317247 -0.07837045 
-0.10033711 0.9934412 -0.054836437 
-0.12895575 0.98987746 -0.05927212 
-0.17533252 0.981584 -0.07583721 
-0.20678224 0.975301 -0.07764768 
-0.21170893 0.9751687 -0.0650035 
-0.21346326 0.9745097 -0.06902489 
-0.21943268 0.9725016 -0.078039296 
-0.2200937 0.97451466 -0.04336004 
-0.21500519 0.97599304 0.034792222 
-0.2083902 0.9732286 0.096952364 
0.08056602 -0.0975219 0.991967 
0.07173425 0.34862396 0.9345135 
0.026580831 0.82509744 0.5643648 
-0.017902121 0.95083886 0.30916822 
-0.07785345 0.9797361 0.18454337 
-0.113705926 0.99020755 0.08099447 
-0.097839154 0.99510425 -0.013970739 
-0.052995253 0.99604386 -0.07133112 
-0.01911072 0.99524516 -0.09550884 
0.0037085086 0.99454546 -0.10423821 
0.030326989 0.9948726 -0.096482754 
0.06418879 0.99413353 -0.08705423 
0.10855763 0.99071556 -0.08184119 
0.1498279 0.9862564 -0.069641136 
0.15694022 0.98627275 -0.051341154 
0.1214519 0.9920294 -0.033573467 
0.06446679 0.99771005 -0.020463195 
0.011795974 0.9997878 -0.016887862 
-0.016627144 0.9995804 -0.023721222 
-0.030558163 0.99875796 -0.03935513 
-0.048228282 0.9973827 -0.05386936 
-0.061115783 0.99673736 -0.052722134 
-0.0687133 0.99645305 -0.0485774 
-0.08899173 0.99423754 -0.059768986 
-0.12646003 0.98885125 -0.07862021 
-0.15761773 0.9840492 -0.08248591 
-0.16924132 0.982971 -0.071591154 
-0.17790723 0.9814358 -0.07164479 
-0.18406065 0.9798856 -0.07711061 
-0.18162589 0.9819748 -0.052323367 
-0.17207019 0.9850714 0.0051330603 
-0.16116948 0.98557055 0.0517229 
-0.019531507 0.6140553 0.7890213 
-0.02487791 0.80252045 0.5961057 
-0.026216052 0.93920225 0.3423623 
-0.031137716 0.97769016 0.20773172 
-0.059641257 0.9876894 0.14461173 
-0.08283165 0.99341255 0.07918694 
-0.06963149 0.997531 0.009131913 
-0.027086016 0.9990428 -0.034349952 
0.00028609548 0.9990759 -0.042981517 
0.0044912267 0.99895185 -0.045552492 
0.021773096 0.9983244 -0.05361252 
0.054965246 0.9965611 -0.062006332 
0.08691477 0.9937976 -0.06937132 
0.10521338 0.99236494 -0.064357884 
0.09156432 0.9947817 -0.04500565 
0.056267794 0.99817127 -0.022092097 
0.026558118 0.9996274 -0.006303171 
0.009693345 0.9999519 -0.0015407406 
0.0064164354 0.99997765 -0.0019044882 
-0.0028341222 0.9999349 -0.011052427 
-0.029995617 0.9991375 -0.028714444 
-0.04891288 0.99765354 -0.047907826 
-0.05386974 0.9964813 -0.06421216 
-0.062336378 0.99508613 -0.076927945 
-0.08609536 0.99231845 -0.08883581 
-0.111410566 0.98983127 -0.08844158 
-0.12892288 0.9886614 -0.076991305 
-0.14663264 0.9867283 -0.06975731 
-0.15610862 0.9853345 -0.068892576 
-0.15273392 0.98678863 -0.05404412 
-0.14107893 0.98977894 -0.02084184 
-0.13042296 0.9914356 0.006729244 
-0.106163576 0.90986454 0.40109327 
-0.082421646 0.9515327 0.2962977 
-0.055606697 0.98081416 0.18684623 
-0.04204509 0.9890667 0.141348 
-0.054502077 0.9907461 0.12430488 
-0.072351046 0.9937838 0.08461239 
-0.06426918 0.9975223 0.02861283 
-0.025511574 0.99962777 -0.009675591 
0.0062825074 0.9999326 -0.009771939 
0.010646121 0.9999281 -0.005520635 
0.016860042 0.9994575 -0.028295541 
0.031155728 0.99765843 -0.060886238 
0.043283965 0.9958903 -0.079555236 
0.050258495 0.9967112 -0.06356909 
0.043372918 0.99881846 -0.021921748 
0.03375731 0.9993696 0.010991913 
0.03430534 0.99921733 0.01969814 
0.039864805 0.9991292 0.012319403 
0.03853419 0.999256 0.0016023507 
0.011741156 0.9998452 -0.01310501 
-0.031928442 0.99883753 -0.036112774 
-0.059609454 0.99600685 -0.06646149 
-0.06597849 0.9939122 -0.08823534 
-0.067019664 0.9932876 -0.09427675 
-0.075834796 0.99271905 -0.09358433 
-0.08753981 0.99247843 -0.08557702 
-0.10574867 0.9918647 -0.070864476 
-0.13017368 0.990012 -0.05414103 
-0.14480591 0.98849964 -0.04358739 
-0.14208506 0.9892827 -0.033640496 
-0.12988143 0.9913017 -0.021258024 
-0.12061527 0.9926314 -0.011618027 
-0.08717442 0.99154115 0.09616037 
-0.06238711 0.9955743 0.0702835 
-0.03945582 0.99774206 0.054350562 
-0.034905788 0.9970853 0.06784174 
-0.049469475 0.99560827 0.079478756 
-0.06458523 0.996003 0.06170034 
-0.06264538 0.99767727 0.026752777 
-0.032558147 0.99946594 -0.002814772 
0.0054900474 0.99998325 -0.0018455636 
0.020069309 0.99979687 0.0019052624 
0.01740086 0.9994287 -0.028974935 
0.008788355 0.9977176 -0.066950954 
0.0089108925 0.9969916 -0.076997355 
0.02528694 0.9987014 -0.044228885 
0.040768873 0.99910873 0.010940614 
0.050826613 0.9978904 0.04039097 
0.05762917 0.99778587 0.033202708 
0.05782158 0.99826443 0.011168198 
0.039329745 0.99917513 -0.010116951 
-0.0038152586 0.9996465 -0.02631384 
-0.051026884 0.99773026 -0.04393875 
-0.07911416 0.994259 -0.07204161 
-0.083122045 0.99207586 -0.09421416 
-0.07529465 0.9925527 -0.09575923 
-0.06896452 0.9940116 -0.08476376 
-0.0693672 0.9950958 -0.0705172 
-0.0890777 0.99468005 -0.051737815 
-0.11873733 0.9925653 -0.02675256 
-0.13653947 0.99060863 -0.0071899486 
-0.13170657 0.9912884 -0.0008205843 
-0.11754711 0.99305713 -0.0044896533 
-0.109257296 0.9939807 -0.008081617 
-0.043241397 0.9960172 -0.07797486 
-0.025176605 0.9974788 -0.066349514 
-0.013406703 0.9990545 -0.041356236 
-0.021113584 0.9997556 -0.0065526236 
-0.0429063 0.99897826 0.014194994 
-0.05915132 0.9982023 0.009668116 
-0.05998899 0.99818385 -0.0055070943 
-0.0344026 0.99903345 -0.02736159 
0.015966997 0.99938536 -0.031210357 
0.04330245 0.99887043 -0.019564956 
0.026603578 0.99924964 -0.028153896 
-0.0016163987 0.9990554 -0.043425824 
0.0007333161 0.9991437 -0.04136993 
0.035665806 0.99930286 -0.011042706 
0.06784917 0.9972026 0.031364433 
0.078266166 0.9960091 0.042899475 
0.06835614 0.9973631 0.024376893 
0.04575941 0.9989521 0.0009933508 
0.008618169 0.9997794 -0.01915878 
-0.0358701 0.99893034 -0.029183077 
-0.0712869 0.9968003 -0.036158424 
-0.09015842 0.99425536 -0.057686307 
-0.08611486 0.9930345 -0.08041697 
-0.06935161 0.9942305 -0.08183008 
-0.05284482 0.9963798 -0.0665945 
-0.047695696 0.99761665 -0.04986159 
-0.06820338 0.9972581 -0.028717358 
-0.09999697 0.9949878 8.889774e-05 
-0.11756049 0.9927542 0.024871342 
-0.10973127 0.9935721 0.027812276 
-0.09471286 0.99542916 0.012258347 
-0.087985784 0.99612063 -0.0014826551 
0.023651917 0.99492747 -0.09777553 
0.030452786 0.9966345 -0.076107964 
0.022751147 0.9983674 -0.05239274 
0.00035567372 0.99940354 -0.03453231 
-0.029580802 0.9991579 -0.028436096 
-0.049544495 0.9981906 -0.03407286 
-0.047087565 0.99802566 -0.041563883 
-0.019233065 0.99795896 -0.06089402 
0.036091883 0.99667424 -0.07306169 
0.06627497 0.99664694 -0.047985055 
0.037550267 0.99922335 -0.011946286 
-0.00135516 0.9999744 0.0070210253 
0.007370135 0.999941 0.007992198 
0.05874337 0.9981413 0.016228 
0.101441264 0.9943822 0.030230679 
0.10380099 0.994327 0.023223028 
0.072644845 0.99733615 0.0065804897 
0.029504111 0.99954396 -0.0064417147 
-0.018643064 0.999612 -0.020700831 
-0.060323305 0.9977635 -0.02879372 
-0.08766476 0.9956213 -0.032451227 
-0.09871197 0.99400574 -0.046995666 
-0.086224265 0.994141 -0.0651847 
-0.0650395 0.99578506 -0.06466804 
-0.04571602 0.99784774 -0.04700924 
-0.038534883 0.99884504 -0.028701471 
-0.055875942 0.99841154 -0.0072362283 
-0.08448102 0.9962187 0.020283384 
-0.09795877 0.9942246 0.04383438 
-0.08805833 0.9951964 0.042778935 
-0.07466839 0.9969456 0.0228919 
-0.070162304 0.9975164 0.0061859833 
0.16078795 0.98696715 -0.0065640323 
0.14065963 0.98997706 0.012662824 
0.07293099 0.9973183 0.006110107 
0.011529478 0.99972427 -0.020459017 
-0.028465442 0.9983292 -0.05028558 
-0.04207044 0.9966024 -0.07080793 
-0.026168581 0.9965258 -0.07906694 
0.008891472 0.99538547 -0.09554462 
0.058618225 0.99305797 -0.10197927 
0.07605128 0.99563587 -0.05408854 
0.038129814 0.99912024 0.017462408 
0.0020552934 0.9986948 0.051034167 
0.0209358 0.9989635 0.040418297 
0.078713104 0.99652946 0.027080169 
0.117367975 0.9929443 0.016923448 
0.10713101 0.99424446 0.00095126196 
0.06584278 0.9978082 -0.0065914416 
0.019572569 0.99975383 -0.010458924 
-0.025571192 0.9993361 -0.02595507 
-0.059302494 0.9973938 -0.041096464 
-0.08093663 0.99586064 -0.04136471 
-0.08947989 0.99512166 -0.041548003 
-0.07863647 0.9956102 -0.050761007 
-0.063972585 0.9967527 -0.048905775 
-0.05021326 0.9982056 -0.032622527 
-0.045250595 0.9988404 -0.016444018 
-0.05941165 0.9982333 -0.00085546647 
-0.081746705 0.9964807 0.018543579 
-0.088093475 0.9954486 0.036354236 
-0.075917974 0.996489 0.03530242 
-0.06417062 0.99773186 0.020331265 
-0.061526936 0.99808186 0.0068569947 
0.547372 0.82082003 0.16321284 
0.47760433 0.8626827 0.16635126 
0.24064106 0.9658114 0.09643801 
0.06788777 0.9975205 0.018551843 
-0.010263417 0.9989914 -0.04371553 
-0.025082104 0.9965829 -0.07869765 
-0.0008289932 0.99562556 -0.093429044 
0.03460515 0.9929084 -0.113734506 
0.07626675 0.9905928 -0.113619745 
0.08693812 0.99540067 -0.04024221 
0.045936078 0.997385 0.055794958 
0.010843905 0.9962415 0.0859374 
0.027659599 0.99801534 0.05657204 
0.0726039 0.99703944 0.02531928 
0.094679676 0.9955067 0.001520802 
0.07734937 0.99692374 -0.012659563 
0.04492917 0.9989411 -0.009897947 
0.013700773 0.9998327 -0.012128646 
-0.017290724 0.9992616 -0.03431117 
-0.038896523 0.99780923 -0.053515147 
-0.053179618 0.9975181 -0.046146885 
-0.059444238 0.997584 -0.035952885 
-0.05379351 0.9976622 -0.04214788 
-0.04933299 0.9978969 -0.042048976 
-0.047364958 0.9983886 -0.0312526 
-0.05194258 0.9984197 -0.021449598 
-0.06845316 0.997547 -0.014635437 
-0.08607567 0.9962762 -0.0049615935 
-0.08605141 0.9962642 0.0072655734 
-0.07180592 0.9973712 0.009735338 
-0.059785835 0.9982059 0.0032659417 
-0.057170313 0.9983561 -0.0041022063 
0.87629485 -0.444627 0.18551113 
0.98017305 -0.016709344 0.1974379 
0.57747185 0.80921805 0.108131416 
0.1999614 0.97968173 0.015465634 
0.044494763 0.9979254 -0.046533164 
0.011638997 0.9972201 -0.07359844 
0.031138808 0.996062 -0.08301171 
0.0554521 0.9928485 -0.10572125 
0.084963836 0.9907502 -0.10580821 
0.09644307 0.9950514 -0.02390963 
0.06319396 0.99527556 0.07371033 
0.03020388 0.995513 0.089675084 
0.03501467 0.99823546 0.047958337 
0.05550813 0.99838316 0.012248171 
0.057577167 0.99829495 -0.009591485 
0.03995407 0.99912274 -0.012545911 
0.023343012 0.99972665 -0.0013691608 
0.0042587835 0.9999694 -0.0065733213 
-0.017617524 0.9993706 -0.030791905 
-0.026411692 0.9986256 -0.04527126 
-0.028661573 0.99898183 -0.034842312 
-0.028395692 0.9991871 -0.028616836 
-0.024867337 0.99890596 -0.03960625 
-0.026640661 0.99872154 -0.042961136 
-0.035281584 0.9985977 -0.039472166 
-0.050084855 0.9981269 -0.035130583 
-0.06873624 0.99715245 -0.031021701 
-0.081020385 0.9964137 -0.024404757 
-0.07449178 0.9971286 -0.013628978 
-0.058827832 0.9982338 -0.008282532 
-0.04911936 0.99873126 -0.01110501 
-0.04867567 0.99870485 -0.014808233 
0.51884043 -0.85404503 -0.037573628 
0.8268478 -0.5517723 -0.10895047 
0.7428238 0.6659861 -0.06837694 
0.28223145 0.9578742 -0.053127594 
0.07447524 0.99459535 -0.07234353 
0.023194838 0.9965989 -0.07907461 
0.034068726 0.99642766 -0.0772745 
0.047821455 0.99384224 -0.09995354 
0.07805984 0.9914487 -0.10457625 
0.1075816 0.9938872 -0.024788933 
0.09089092 0.9939109 0.062290248 
0.058522273 0.99633425 0.062395725 
0.04790293 0.99873394 0.01536121 
0.04593689 0.9987984 -0.017081453 
0.036243342 0.9990185 -0.025465107 
0.0246075 0.9996769 -0.006378485 
0.014806766 0.9997451 0.017048672 
-0.007588871 0.9998858 0.013074022 
-0.027801175 0.9995932 -0.006367593 
-0.025721634 0.99952453 -0.017001644 
-0.016653826 0.9997387 -0.0156576 
-0.011012534 0.9996724 -0.023103556 
-0.011291536 0.9991309 -0.040123392 
-0.018145509 0.9986912 -0.047819223 
-0.031080415 0.9981959 -0.05137101 
-0.044945642 0.99778754 -0.048990525 
-0.054443095 0.9976219 -0.042268567 
-0.055175085 0.9979452 -0.03257621 
-0.041474346 0.99895567 -0.019170824 
-0.029413592 0.99949265 -0.012227401 
-0.032001227 0.9993555 -0.016265025 
-0.040879983 0.99896306 -0.020040868 
0.52388126 -0.8244075 -0.21424465 
0.8149189 -0.47009844 -0.33899093 
0.67471826 0.71729255 -0.17391585 
0.23431961 0.9689512 -0.07891767 
0.036948167 0.9962428 -0.078326635 
-0.009323172 0.9964598 -0.08355302 
0.0016391178 0.99666214 -0.08162058 
0.011325916 0.99462235 -0.10294797 
0.046851132 0.9930053 -0.108377345 
0.09560499 0.9947434 -0.036677245 
0.09929174 0.9945248 0.03258187 
0.07499285 0.9970063 0.01882834 
0.05852729 0.99787676 -0.028576987 
0.046954565 0.9975939 -0.051007364 
0.035826735 0.99870056 -0.036244527 
0.029383315 0.9995476 0.0064234636 
0.01909331 0.99922484 0.03442671 
-0.005816164 0.999624 0.026798613 
-0.022660686 0.9996865 0.010650149 
-0.018333508 0.9998307 0.0015732723 
-0.012024294 0.99991035 -0.0058919108 
-0.01545636 0.9995992 -0.023720283 
-0.028247412 0.99856657 -0.04546371 
-0.039658934 0.99762404 -0.056333397 
-0.047187336 0.9970225 -0.060988225 
-0.04709899 0.9972855 -0.056598376 
-0.037858263 0.9981747 -0.047053684 
-0.022724368 0.99917555 -0.0336454 
-0.004325342 0.99984074 -0.017314142 
-0.0021274865 0.9999466 -0.010116644 
-0.022376101 0.9996055 -0.016976232 
-0.043031868 0.99879897 -0.023428574 
0.79934156 -0.26834884 -0.5376264 
0.8346525 0.27433315 -0.47759464 
0.41493636 0.89619684 -0.15703231 
0.09667835 0.99386513 -0.053716954 
-0.035932876 0.99759114 -0.059337657 
-0.057515774 0.9952585 -0.078438655 
-0.042429768 0.99511653 -0.08912214 
-0.037189037 0.99285096 -0.11341987 
0.0022682443 0.99336565 -0.11497623 
0.064864025 0.9967929 -0.046869446 
0.085429795 0.9963209 0.0068212347 
0.072032966 0.9972854 -0.015265597 
0.056839913 0.9968871 -0.054638688 
0.045575745 0.99722874 -0.05880278 
0.039382625 0.9989475 -0.023518061 
0.039539687 0.9989053 0.024997715 
0.033958133 0.9986345 0.039700195 
0.012197292 0.999676 0.022343744 
-0.007974781 0.9999418 0.0072705727 
-0.014532959 0.99988633 -0.0040432713 
-0.01865936 0.999648 -0.018866733 
-0.03340719 0.99856776 -0.041790977 
-0.057458438 0.99653447 -0.0601479 
-0.07174479 0.9955595 -0.060941916 
-0.07137966 0.9958886 -0.05577465 
-0.054261915 0.9973291 -0.048892103 
-0.026005303 0.99877566 -0.04208372 
0.0027976488 0.9995345 -0.030383378 
0.022356318 0.9996325 -0.015340589 
0.015310439 0.99982405 -0.01084338 
-0.01670931 0.9996139 -0.022201395 
-0.045171633 0.998422 -0.0333613 
0.38297734 0.7681472 -0.5131066 
0.31656972 0.899195 -0.3020465 
0.115254626 0.989752 -0.084306024 
-0.027891545 0.99930805 -0.024608327 
-0.087912455 0.9952613 -0.04154983 
-0.0856387 0.9937548 -0.071536586 
-0.07040165 0.99329334 -0.09171745 
-0.07007568 0.99092776 -0.114680514 
-0.028048096 0.99369925 -0.10851313 
0.043282732 0.9979612 -0.046904348 
0.073907465 0.9972418 -0.006822266 
0.06181732 0.997752 -0.025878156 
0.04072034 0.9979891 -0.048576146 
0.0285092 0.9989579 -0.035642806 
0.025750846 0.9996547 0.0052338834 
0.03184936 0.998706 0.03964859 
0.03480623 0.9988113 0.034127533 
0.01874226 0.999782 0.009201234 
-0.002762817 0.9999546 -0.009125948 
-0.013893771 0.99948704 -0.028856616 
-0.02240386 0.99861073 -0.047693875 
-0.044362802 0.9968729 -0.06539437 
-0.074992485 0.9947097 -0.07020553 
-0.090915486 0.9942139 -0.05721196 
-0.08341592 0.995468 -0.045665763 
-0.049624026 0.9979443 -0.040554732 
-0.0071316026 0.9992602 -0.037793573 
0.02584453 0.9992141 -0.030055057 
0.037639994 0.99907273 -0.020903477 
0.019776234 0.99949723 -0.024784267 
-0.018230954 0.998725 -0.047076315 
-0.049166285 0.99647343 -0.06799578 
0.09874867 0.9590146 -0.2655932 
0.06471745 0.9868782 -0.14792886 
-0.01627319 0.99894994 -0.042829778 
-0.078973465 0.99674034 -0.016496165 
-0.10298625 0.9939718 -0.037601482 
-0.08921587 0.9936059 -0.06919396 
-0.072908126 0.9933695 -0.088890605 
-0.06645044 0.99235594 -0.103990756 
-0.014461093 0.9961495 -0.08647049 
0.0573317 0.9979612 -0.028047495 
0.074366786 0.9972292 0.0018590315 
0.040396463 0.99905425 -0.016089538 
0.0049201013 0.9996217 -0.027061444 
-0.010375659 0.99994004 -0.0035215693 
-0.012739136 0.9993848 0.03267707 
-0.00047370096 0.99883586 0.048235733 
0.013725477 0.9994775 0.029263612 
0.0069099963 0.9999751 0.001473493 
-0.0072041396 0.9996745 -0.024473017 
-0.0128165 0.99841315 -0.054836128 
-0.02001825 0.99717414 -0.072408676 
-0.042194128 0.9960652 -0.0779352 
-0.0697552 0.99504966 -0.070784435 
-0.080812395 0.99521124 -0.054990973 
-0.06457517 0.9968422 -0.04621508 
-0.022930441 0.9988149 -0.04293032 
0.014449412 0.999057 -0.04094342 
0.03418258 0.99872816 -0.03706509 
0.031706423 0.99886763 -0.035472814 
0.0035362903 0.99874866 -0.049886517 
-0.03665565 0.99579704 -0.08393265 
-0.06528517 0.99144113 -0.11305927 
0.03914877 0.99203855 -0.11969537 
0.012886215 0.9973541 -0.07154594 
-0.032708347 0.9989672 -0.03153965 
-0.06717246 0.9974303 -0.024911417 
-0.07638821 0.99611384 -0.043843057 
-0.056651194 0.99614936 -0.06691233 
-0.03973352 0.9963306 -0.07580654 
-0.028158635 0.9967782 -0.07510322 
0.020986589 0.9987884 -0.044511154 
0.07279845 0.9973423 0.0029709921 
0.06194605 0.9979984 0.012726133 
0.007382185 0.99994934 -0.006845038 
-0.03421253 0.99941206 -0.0022745961 
-0.050907154 0.99826336 0.029643033 
-0.05254588 0.99711305 0.05481304 
-0.032239813 0.9981431 0.051683657 
-0.009882189 0.99963963 0.024961917 
-0.011337251 0.9999265 -0.004291734 
-0.01514629 0.999156 -0.03818353 
-0.011912555 0.9972455 -0.073209636 
-0.018303616 0.996217 -0.084951736 
-0.03992268 0.9960024 -0.079910025 
-0.059081208 0.9959768 -0.0673774 
-0.056951113 0.99686295 -0.05496369 
-0.03192707 0.99831414 -0.04847209 
0.0035650756 0.99900013 -0.044565994 
0.021815004 0.9988949 -0.041631997 
0.025743596 0.9989754 -0.03722273 
0.014134622 0.99917704 -0.038021676 
-0.021304803 0.9979474 -0.060391378 
-0.06356342 0.9927032 -0.1024708 
-0.08868031 0.98702866 -0.1338299 
0.029512 0.9990009 -0.033559617 
0.013623136 0.99964017 -0.023106214 
-0.011760878 0.999836 -0.013769653 
-0.03202727 0.9993869 -0.01414605 
-0.035392635 0.9989545 -0.028936723 
-0.019869043 0.9988681 -0.043219548 
-0.015575648 0.9988418 -0.045523576 
-0.0148778735 0.99911207 -0.03941893 
0.020015487 0.9997045 -0.013797655 
0.054123107 0.99846804 0.011501893 
0.030916292 0.9994997 0.0066793915 
-0.02291682 0.999735 -0.0021881782 
-0.05516561 0.99827653 0.02001697 
-0.062964864 0.99668324 0.051555037 
-0.054894954 0.996624 0.061050937 
-0.02788092 0.9986028 0.04489044 
-0.0117141735 0.99980927 0.015631376 
-0.021487355 0.9996607 -0.014729337 
-0.023451697 0.9984301 -0.050867185 
-0.020712873 0.99638784 -0.08235421 
-0.036499374 0.9954699 -0.08779276 
-0.06246256 0.99529135 -0.07411968 
-0.06931855 0.9960712 -0.05510973 
-0.047190055 0.997982 -0.04248553 
-0.013803186 0.9992149 -0.037137263 
0.012476258 0.9992789 -0.035863247 
0.01733026 0.99936455 -0.031148853 
0.0135745015 0.99968904 -0.020919614 
-0.003144582 0.9997403 -0.02257216 
-0.043657936 0.997601 -0.05372461 
-0.08586173 0.9911799 -0.10094688 
-0.10532468 0.98579204 -0.13084643 
0.029158633 0.9995744 0.0009699891 
0.02604633 0.99966043 -0.00084333745 
0.015947878 0.999865 0.003956167 
0.0006625352 0.99996394 0.008466346 
-0.008602811 0.999963 0.00030008692 
-0.009626113 0.9998877 -0.011488645 
-0.023818389 0.999478 -0.021827312 
-0.03320561 0.9991147 -0.02583114 
-0.004777997 0.9999294 -0.010881499 
0.02362508 0.99971694 0.0028348751 
0.0031564224 0.9999948 -0.00074431597 
-0.035992935 0.99933124 0.0064595863 
-0.050350346 0.9980086 0.037996054 
-0.044120304 0.9971923 0.060505915 
-0.027078886 0.9980702 0.05588103 
-0.0033574058 0.99948466 0.03192531 
-0.004143992 0.9999884 -0.0024995068 
-0.025483388 0.99902874 -0.035946596 
-0.027339077 0.99755764 -0.06427692 
-0.029191073 0.99643546 -0.07914804 
-0.057521343 0.99572146 -0.07232024 
-0.09066486 0.9945023 -0.052394398 
-0.09166984 0.9953027 -0.031133655 
-0.058939494 0.99805504 -0.02030677 
-0.02104024 0.99957365 -0.020246824 
0.0045450274 0.9996466 -0.026194029 
0.008650804 0.99969214 -0.023254493 
-0.00063938095 0.99992853 -0.011941292 
-0.028822942 0.9994189 -0.018200262 
-0.07832672 0.99539 -0.055350963 
-0.12009134 0.9875477 -0.101624995 
-0.13481082 0.9824405 -0.12898347 
0.039890606 0.9991664 0.008678195 
0.042121228 0.9991052 0.003823852 
0.03651109 0.9992747 0.010824409 
0.0175067 0.99957633 0.023251377 
-0.0046710125 0.9997617 0.021327449 
-0.021005679 0.9997749 0.0029856456 
-0.038343582 0.9989622 -0.024581727 
-0.040006053 0.99853367 -0.03647206 
-0.009552564 0.99978876 -0.01819714 
0.015267045 0.9998831 0.00089203863 
-0.0014278628 0.9999773 0.0066007166 
-0.029562 0.99927026 0.024190085 
-0.03471116 0.997958 0.053618524 
-0.023409737 0.9977379 0.063017204 
-0.0053019566 0.99881804 0.048315752 
0.010846658 0.9997434 0.019891663 
-0.001522187 0.9998033 -0.019777004 
-0.024196312 0.99834275 -0.052214 
-0.021157041 0.9977252 -0.064006425 
-0.02388466 0.9979248 -0.059796855 
-0.058414344 0.9971201 -0.048366033 
-0.09833022 0.9945853 -0.033635948 
-0.10443978 0.9944382 -0.0136069795 
-0.074136525 0.9972481 7.256832e-05 
-0.034543227 0.99939936 -0.0028058907 
-0.0063923 0.99981123 -0.018346827 
-0.005075584 0.99969095 -0.02433562 
-0.026263263 0.999473 -0.019080149 
-0.06873386 0.9971788 -0.030167904 
-0.12546998 0.9897559 -0.06812196 
-0.1721865 0.9782772 -0.11543673 
-0.19879717 0.9686958 -0.14868833 
0.034431785 0.99940616 0.0013803536 
0.035632186 0.9993509 -0.0053220447 
0.028241133 0.99960047 -0.001179883 
0.0055689644 0.9999394 0.009503502 
-0.020309368 0.999786 0.0039323685 
-0.032226145 0.999154 -0.025550133 
-0.030794933 0.9977016 -0.06036024 
-0.014482947 0.998166 -0.058778405 
0.018188544 0.9996801 -0.017579118 
0.03729741 0.9992018 0.014308525 
0.017655512 0.99959105 0.02249477 
-0.012357702 0.99916255 0.039006557 
-0.020134907 0.99786615 0.062111698 
-0.011917874 0.99786824 0.064164795 
0.0017901419 0.9988223 0.048487004 
0.010671332 0.99972117 0.021065595 
-0.0066569876 0.99975145 -0.021282554 
-0.024525898 0.998442 -0.050119873 
-0.015207401 0.9986629 -0.049409084 
-0.015555674 0.99916595 -0.037754953 
-0.04767692 0.99835664 -0.031795774 
-0.086264424 0.9959393 -0.02575761 
-0.0950371 0.9954664 -0.0038147257 
-0.07025887 0.99739313 0.016455298 
-0.03527282 0.99930227 0.012288519 
-0.013171213 0.999835 -0.012512225 
-0.021325367 0.9993429 -0.029309964 
-0.049095515 0.9982724 -0.032280456 
-0.08975174 0.9946873 -0.050416183 
-0.14479312 0.98402464 -0.10358881 
-0.21787891 0.9570446 -0.19129647 
-0.29399636 0.9185273 -0.2643366 
0.011971499 0.99988365 -0.009463641 
0.012705389 0.99975055 -0.018372849 
0.0069582784 0.9997199 -0.022621859 
-0.009201438 0.99967504 -0.023776783 
-0.021722123 0.99899745 -0.039145023 
-0.014791891 0.99732244 -0.071619004 
0.0060618594 0.9957269 -0.09214823 
0.029962212 0.99771994 -0.060475502 
0.054395847 0.9985162 0.0025549713 
0.057550874 0.997748 0.034450427 
0.025083581 0.99910605 0.034031324 
-0.009982774 0.99891883 0.045405388 
-0.017393775 0.997868 0.06290451 
-0.0077462643 0.99808925 0.06130261 
0.0069822026 0.99886 0.04722308 
0.013923664 0.99965346 0.022342905 
-0.0033736648 0.9998837 -0.01487854 
-0.013954045 0.9993913 -0.03197564 
-0.0032528492 0.9997825 -0.020601999 
-0.009721626 0.99989194 -0.011033904 
-0.04499885 0.9988087 -0.018876903 
-0.08005415 0.99652594 -0.022967782 
-0.08160473 0.99666286 -0.001988004 
-0.05604702 0.9982893 0.0166553 
-0.027628956 0.99959487 0.006834257 
-0.016372722 0.9996211 -0.022128465 
-0.034317363 0.9986218 -0.03970825 
-0.060826626 0.9970679 -0.046430327 
-0.09045063 0.9919189 -0.08896892 
-0.15195408 0.9635288 -0.22027756 
-0.28305632 0.8388251 -0.4650286 
-0.43003455 0.6302112 -0.64645517 
-0.019942163 0.9993097 -0.03134535 
-0.014001322 0.9992178 -0.036984287 
-0.009706589 0.99903685 -0.04279385 
-0.008431426 0.9986512 -0.051232286 
0.00079001294 0.99756587 -0.06972652 
0.022351036 0.9955393 -0.09166262 
0.045128528 0.9950281 -0.08878422 
0.057619665 0.99758875 -0.038685463 
0.06055405 0.9979022 0.022897359 
0.041902993 0.9981473 0.04411458 
0.0018984625 0.9992417 0.03889167 
-0.025344735 0.9985878 0.04669177 
-0.021850443 0.9982294 0.055324327 
-0.002930376 0.99884063 0.04805067 
0.016851922 0.9992664 0.034389924 
0.023268512 0.9996182 0.014900746 
0.011401016 0.9998974 -0.008669543 
0.010772042 0.9998933 -0.009874524 
0.017293192 0.99981683 0.008200234 
-0.0043642516 0.99995095 0.008899207 
-0.04952362 0.99871415 -0.010843378 
-0.0796599 0.99667704 -0.017005876 
-0.06991007 0.9975533 -0.00031740117 
-0.04372001 0.9990292 0.0053995573 
-0.025039367 0.99956745 -0.015430802 
-0.026697913 0.99871886 -0.04298755 
-0.05445665 0.99726117 -0.05004617 
-0.07895163 0.99538785 -0.05449535 
-0.10014825 0.98524684 -0.1387772 
-0.17426915 0.8946485 -0.4113811 
-0.3170969 0.34663302 -0.882777 
-0.28600106 -0.39916798 -0.8711305 
-0.03130462 0.99786437 -0.057330832 
-0.017518021 0.9986378 -0.049149383 
-0.003210605 0.9992037 -0.03977209 
0.01016328 0.9991232 -0.040613797 
0.028802942 0.9981501 -0.05354225 
0.047602747 0.9967859 -0.0644351 
0.055538867 0.9970293 -0.05336775 
0.046494037 0.99882513 -0.013665665 
0.02657598 0.99921954 0.02922609 
-0.0024038618 0.99897915 0.045109835 
-0.031148484 0.9986541 0.041469645 
-0.040555254 0.9983902 0.03965246 
-0.028283753 0.99898046 0.035185907 
-0.0066535356 0.9996782 0.024479875 
0.011459196 0.9998224 0.01496473 
0.019533066 0.9997933 0.0056429724 
0.02540097 0.9996726 -0.003090753 
0.04137888 0.9991273 0.005705587 
0.04724422 0.99864924 0.021629332 
0.016146945 0.9998168 0.010282879 
-0.03356649 0.99935305 -0.0129207615 
-0.05855393 0.9982022 -0.012800797 
-0.04949332 0.99877435 0.00060600037 
-0.035653062 0.9993536 -0.0046277405 
-0.029757613 0.999077 -0.030979374 
-0.038524557 0.99778146 -0.054295864 
-0.06870464 0.9961623 -0.05422637 
-0.086089976 0.9946318 -0.05741289 
-0.089628235 0.98231715 -0.16437735 
-0.13521619 0.8498425 -0.50939614 
-0.18827878 -0.006569395 -0.9820937 
-0.017782018 -0.70776725 -0.7062219 
-0.017928908 0.9988131 -0.045288898 
0.0016218076 0.999783 -0.020771518 
0.017539227 0.9998039 0.009198558 
0.026895884 0.9994581 0.018983375 
0.03706894 0.9992946 0.006023359 
0.042313177 0.99906224 -0.0091815265 
0.03203548 0.99941844 -0.011689335 
0.004397892 0.9999856 0.0030912533 
-0.02463205 0.9992324 0.030460725 
-0.040436056 0.9981715 0.044929326 
-0.046501867 0.9983672 0.033175837 
-0.04795065 0.99874496 0.014467437 
-0.040378645 0.9991729 0.0048041698 
-0.023484107 0.99972 0.002927734 
-0.005064724 0.9999448 0.009203924 
0.018273903 0.9997023 0.016171841 
0.049923267 0.9986322 0.015540122 
0.07514237 0.99694943 0.02110901 
0.074529715 0.99699235 0.021251738 
0.03863182 0.9992316 -0.0066185226 
-0.0041929353 0.99951243 -0.03094085 
-0.024321178 0.99939007 -0.025062691 
-0.028933246 0.9995416 -0.008914341 
-0.029344939 0.9994895 -0.012638501 
-0.024623733 0.99903345 -0.036413234 
-0.028049042 0.99771124 -0.061528068 
-0.05465304 0.99612004 -0.068977304 
-0.065745465 0.994995 -0.075250715 
-0.040592548 0.98469484 -0.16949442 
0.007487794 0.8799332 -0.47503856 
0.11904906 0.2381824 -0.9638965 
0.29150802 -0.4789867 -0.8280066 
0.0061482997 0.999845 -0.016503045 
0.029863628 0.99943274 0.015570504 
0.0449506 0.9973812 0.05665843 
0.047036257 0.9963889 0.07068761 
0.04739056 0.997575 0.05097319 
0.041810393 0.9988297 0.02431494 
0.01901799 0.9997814 0.0086889835 
-0.016617883 0.9997879 0.0121678095 
-0.039535195 0.9985876 0.035495665 
-0.038834617 0.99824023 0.044814646 
-0.040667478 0.9989278 0.022126341 
-0.05367966 0.9985567 -0.0017579711 
-0.054853063 0.99848425 -0.0045159673 
-0.03707026 0.9992931 0.0062734624 
-0.006832554 0.99964106 0.02590662 
0.03859333 0.9984704 0.039591573 
0.08263206 0.99587137 0.037578315 
0.096605495 0.9947278 0.034410007 
0.07850645 0.99676764 0.01705973 
0.042410612 0.998877 -0.02112479 
0.015264656 0.99879634 -0.046615276 
-0.0025123784 0.99898976 -0.04486982 
-0.020300249 0.9992656 -0.032498173 
-0.025432047 0.9991422 -0.03268225 
-0.0125518525 0.9988698 -0.045844715 
-0.0033606105 0.997845 -0.06552929 
-0.019622583 0.99690264 -0.076157965 
-0.03240191 0.9961801 -0.081089005 
-0.004033675 0.99097145 -0.13401286 
0.08760689 0.94865876 -0.3039271 
0.27747434 0.7465555 -0.6047007 
0.50270313 0.41646808 -0.7575248 
0.030621173 0.9994391 -0.013563673 
0.05940486 0.9981048 0.01605999 
0.07953306 0.99519897 0.057040777 
0.08349305 0.9939466 0.07140845 
0.082768545 0.9953712 0.048842568 
0.07451814 0.997025 0.019707002 
0.04894982 0.99878514 0.0056652585 
0.013867593 0.99980146 0.014310068 
-0.003975136 0.9991202 0.04174988 
-0.0034626045 0.99866295 0.051578987 
-0.01837651 0.99934983 0.03101852 
-0.045805786 0.998875 0.012273597 
-0.05226516 0.9985429 0.013438211 
-0.033831835 0.99903 0.028186042 
0.003920411 0.99869126 0.050994787 
0.05507325 0.99637735 0.06480171 
0.08763765 0.99419045 0.062489916 
0.081925906 0.99531734 0.051299952 
0.054582078 0.99835664 0.01746006 
0.03149308 0.9991055 -0.028219115 
0.024566893 0.99804354 -0.057494167 
0.010859353 0.99767643 -0.06726051 