# OOMMF OVF 2.0
# Segment count: 1
# Begin: Segment
# Begin: Header
# Title: m
# meshtype: rectangular
# meshunit: m
# xmin: 0
# ymin: 0
# zmin: 0
# xmax: 1.6e-07
# ymax: 1.6e-07
# zmax: 5e-09
# valuedim: 3
# valuelabels: m_x m_y m_z
# valueunits: 1 1 1
# Desc: Total simulation time:  8.739128914471184e-11  s
# xbase: 2.5e-09
# ybase: 2.5e-09
# zbase: 2.5e-09
# xnodes: 32
# ynodes: 32
# znodes: 1
# xstepsize: 5e-09
# ystepsize: 5e-09
# zstepsize: 5e-09
# End: Header
# Begin: Data Text
0.18924153 -0.6755526 -0.7126124 
0.1732576 -0.0963837 -0.98014903 
0.051332235 0.78978413 -0.61123335 
0.00977955 0.9687754 -0.24774738 
0.04168146 0.99534005 -0.08695374 
0.08356127 0.99649054 0.004918682 
0.06550301 0.9965079 0.05178194 
0.0023174903 0.9988405 0.048086688 
-0.059697874 0.99811846 0.013995843 
-0.100939415 0.99438256 -0.031855375 
-0.11454165 0.9911288 -0.067409106 
-0.09217002 0.9899184 -0.107546374 
-0.026583156 0.98834383 -0.1498997 
0.048724305 0.98708355 -0.1526178 
0.08965123 0.9895832 -0.11264074 
0.09226775 0.9929711 -0.07412881 
0.08605001 0.993207 -0.078328446 
0.08761829 0.9921348 -0.089396015 
0.07565914 0.99528104 -0.0607568 
0.03571833 0.99911445 -0.02223973 
-0.018975377 0.9996957 -0.015761774 
-0.07934921 0.99567455 -0.048332125 
-0.13694263 0.9860946 -0.09415002 
-0.18120027 0.97678965 -0.114229776 
-0.21029207 0.9733672 -0.09128845 
-0.21011132 0.9765056 -0.047854945 
-0.18404636 0.9827844 -0.016183816 
-0.1608624 0.98695546 -0.006505547 
-0.15662634 0.987658 -0.00010666992 
-0.16877577 0.9855909 0.011202111 
-0.19298597 0.9811649 0.008477574 
-0.21516442 0.976566 -0.004809912 
0.17250276 -0.34887418 -0.9211567 
0.08952025 0.31105196 -0.94616747 
0.008062199 0.8626646 -0.5057124 
-0.010948808 0.97477496 -0.22292176 
0.010694291 0.994932 -0.0999807 
0.028898086 0.99936503 -0.020842714 
0.0035629112 0.99955845 0.029499827 
-0.037921745 0.99881357 0.03055051 
-0.059221428 0.9982277 -0.00585919 
-0.06571529 0.9968173 -0.045132495 
-0.06964858 0.9954071 -0.06568056 
-0.057208117 0.9940062 -0.09316068 
-0.0069297478 0.9912391 -0.13189848 
0.053936027 0.98888516 -0.13855322 
0.08352123 0.99093354 -0.10523832 
0.081395 0.99386925 -0.07482458 
0.0744817 0.99413514 -0.07840811 
0.07496614 0.9936058 -0.084424905 
0.06400006 0.99621904 -0.058750413 
0.031132268 0.99928516 -0.021445459 
-0.014196146 0.9998912 -0.004020834 
-0.06601565 0.9976344 -0.019172134 
-0.11708149 0.99167377 -0.05362149 
-0.1570178 0.98473614 -0.0751009 
-0.18287024 0.9810084 -0.06466145 
-0.18559977 0.98202163 -0.03444298 
-0.16595341 0.9860852 -0.009773954 
-0.14646065 0.98921424 -0.0021530972 
-0.1380718 0.9904214 0.0012719235 
-0.13784729 0.99042696 0.007259653 
-0.14520219 0.98939496 0.003754554 
-0.15309498 0.9881912 -0.0063357158 
0.042760972 0.5126283 -0.85754526 
-0.0068680197 0.78335583 -0.62153566 
-0.01966591 0.94248104 -0.3336805 
-0.015376895 0.982875 -0.18363108 
-0.000665652 0.9937229 -0.11186826 
-0.0089577185 0.99898076 -0.04424125 
-0.047236398 0.9987692 0.015124235 
-0.073381975 0.9968821 0.029003965 
-0.06163666 0.9980929 -0.0034020348 
-0.030287942 0.99884367 -0.037337482 
-0.012808756 0.99865776 -0.050185494 
-0.005313705 0.9974957 -0.07052843 
0.024865873 0.9937168 -0.10912741 
0.06518176 0.98998016 -0.12526247 
0.07875564 0.9916443 -0.10217179 
0.06655279 0.9948013 -0.077079065 
0.052627686 0.99597317 -0.072579764 
0.045830574 0.99645156 -0.07059591 
0.034809653 0.99789894 -0.054645922 
0.015483185 0.9995431 -0.025963137 
-0.014366257 0.9998958 0.0014391755 
-0.057404224 0.9983225 0.007561087 
-0.10258245 0.9946413 -0.012867465 
-0.1361372 0.9900769 -0.034850094 
-0.15433602 0.9874018 -0.034902513 
-0.1561203 0.98761815 -0.015394829 
-0.14245129 0.98979354 0.0040696086 
-0.12847051 0.9916621 0.010090662 
-0.118030414 0.99296176 0.009793765 
-0.106871076 0.9942235 0.009919748 
-0.09808911 0.9951552 0.00667804 
-0.094560556 0.9955186 0.001025289 
-0.07051523 0.9344313 -0.34909287 
-0.06597228 0.96643925 -0.24827997 
-0.038637903 0.9868948 -0.15667093 
-0.015941853 0.99270254 -0.11953096 
-0.004603874 0.9954015 -0.09567985 
-0.028483033 0.9984039 -0.0487695 
-0.06813517 0.99766445 0.004812263 
-0.08063115 0.9963603 0.027657107 
-0.053123415 0.99854404 0.009367636 
-0.0023987568 0.99986154 -0.016469322 
0.03528977 0.9988894 -0.03122021 
0.047870632 0.9974918 -0.052140027 
0.06316748 0.994126 -0.08788268 
0.08033512 0.99103314 -0.106769174 
0.07227492 0.9931378 -0.09194388 
0.045327593 0.99659854 -0.068825066 
0.019389775 0.9984242 -0.05266063 
0.0036212548 0.99886394 -0.047515787 
0.00026667365 0.9988817 -0.04727943 
0.00074249285 0.9995851 -0.028796043 
-0.016768416 0.99985194 0.0038678788 
-0.05630731 0.99817073 0.02201596 
-0.09519354 0.9954111 0.00975405 
-0.118043244 0.9929403 -0.011637926 
-0.12487422 0.99205196 -0.015474902 
-0.12312268 0.9923914 -0.00032702254 
-0.116168655 0.99308777 0.0167805 
-0.110645 0.9936206 0.021813653 
-0.103648275 0.9944489 0.018124878 
-0.0883386 0.9959887 0.014244114 
-0.068898804 0.99751747 0.0145629 
-0.05735839 0.9982267 0.015922148 
-0.115804814 0.9919398 -0.0514286 
-0.0924208 0.99513215 -0.034212034 
-0.052579775 0.9982642 -0.026533982 
-0.024348255 0.99900347 -0.037407324 
-0.0190427 0.99887526 -0.043424115 
-0.043740988 0.99865156 -0.027961487 
-0.06893 0.9976154 -0.0035169977 
-0.06620752 0.99777675 0.0076228576 
-0.034556523 0.9994024 -0.0008112459 
0.015412429 0.99981976 -0.011089972 
0.0583371 0.9981048 -0.01958399 
0.07827251 0.9962154 -0.037795074 
0.089158915 0.99385864 -0.0655417 
0.09187795 0.9925329 -0.08023031 
0.07111598 0.9949846 -0.07034406 
0.036214717 0.9981922 -0.047967885 
0.00063702295 0.99971646 -0.023806674 
-0.022584708 0.9995224 -0.021092232 
-0.019538835 0.99908566 -0.038028613 
-0.0068565854 0.9993961 -0.034067646 
-0.018829914 0.9998113 -0.0047695343 
-0.05689902 0.9982138 0.018211864 
-0.0904407 0.9958289 0.012052837 
-0.10466686 0.99448305 -0.0069492916 
-0.10480341 0.9944289 -0.01129202 
-0.10330445 0.994649 0.0013214021 
-0.10442862 0.994406 0.015859976 
-0.10615354 0.9941428 0.020289738 
-0.1012296 0.99472207 0.016752759 
-0.0828992 0.99643624 0.015572314 
-0.058142595 0.9980094 0.02443061 
-0.043826487 0.99844676 0.034399446 
-0.12964945 0.9915549 0.0031357044 
-0.09812109 0.99516976 0.003068631 
-0.056689743 0.99838704 0.0030922713 
-0.034820117 0.999393 0.0011795464 
-0.03463788 0.9993986 -0.0016861717 
-0.04664757 0.9989102 -0.0015954394 
-0.052405957 0.9986159 -0.0044668694 
-0.044313744 0.9988936 -0.015745973 
-0.02311224 0.999328 -0.02845004 
0.013136627 0.9994088 -0.03177346 
0.052849002 0.99807763 -0.032372463 
0.079516254 0.9960485 -0.03955363 
0.092777334 0.99440503 -0.05050763 
0.09474238 0.9941651 -0.05157318 
0.07760078 0.9962062 -0.039388347 
0.047242302 0.99872404 -0.017850354 
0.011229078 0.99991983 0.0058710207 
-0.0151344435 0.99988556 -8.0261425e-06 
-0.01189759 0.9994017 -0.0324771 
-0.0012464939 0.9990864 -0.042717785 
-0.019330706 0.9996237 -0.019466108 
-0.06036624 0.998162 0.005348448 
-0.091323204 0.99580896 0.0049569397 
-0.09955956 0.99498284 -0.009858965 
-0.09594214 0.99528146 -0.01449366 
-0.09549727 0.9954109 -0.006123524 
-0.10126961 0.99485207 0.0037238325 
-0.10465611 0.9944807 0.0074432837 
-0.09803887 0.9951564 0.007225348 
-0.07662436 0.996968 0.013550969 
-0.049207374 0.9982561 0.03261163 
-0.033974707 0.9981284 0.050847597 
-0.20239404 0.97499865 -0.09172984 
-0.14925292 0.9865219 -0.06706864 
-0.08946514 0.99517596 -0.040262092 
-0.065621786 0.9977683 -0.012342093 
-0.063799776 0.9979402 0.0067057833 
-0.05668639 0.9983106 0.01275562 
-0.038272116 0.99926686 0.0009956852 
-0.020105576 0.99957234 -0.021233922 
-0.009400981 0.9992735 -0.036933664 
0.0053970874 0.99885625 -0.047508582 
0.03249005 0.9976721 -0.0599578 
0.060919758 0.9959731 -0.065776244 
0.07807844 0.9951722 -0.059465323 
0.08457468 0.9956327 -0.039531317 
0.07715224 0.9968753 -0.016944595 
0.058449574 0.99827254 0.0059644715 
0.031327493 0.99912554 0.027690148 
0.0060213036 0.9998601 0.015607134 
0.0033840681 0.99966896 -0.025509305 
0.005453497 0.99890363 -0.046496954 
-0.017979126 0.99944836 -0.027925765 
-0.05762475 0.998338 0.00091760367 
-0.08564879 0.99628717 0.008732101 
-0.09058585 0.9958886 -0.0003239772 
-0.08496489 0.99635464 -0.007641949 
-0.083552964 0.9964624 -0.009038287 
-0.087405 0.9961164 -0.010607077 
-0.08623887 0.9961939 -0.012677898 
-0.07497217 0.9971229 -0.011192635 
-0.05214285 0.99863696 0.0023557073 
-0.027465977 0.99919593 0.02920912 
-0.015868079 0.9984795 0.052792907 
-0.5168878 0.804454 -0.2927128 
-0.384177 0.9041126 -0.18705241 
-0.22030714 0.96979666 -0.10468719 
-0.13443826 0.9901017 -0.040311545 
-0.1021087 0.99476683 0.0036038416 
-0.074514605 0.9969444 0.023438826 
-0.037791133 0.99916047 0.015819442 
-0.009458585 0.9999505 -0.003076107 
-0.006090511 0.99986696 -0.015137732 
-0.008974819 0.9992056 -0.03883095 
0.0066114054 0.99704295 -0.07656209 
0.034128886 0.99480265 -0.095931664 
0.052173 0.995021 -0.084919415 
0.05824218 0.9969698 -0.051566184 
0.05689834 0.9981624 -0.020843446 
0.050494317 0.9987232 0.0015648425 
0.03625909 0.9990834 0.022754515 
0.015634421 0.99974436 0.016338266 
0.006817279 0.9998346 -0.016866222 
0.0059639895 0.9992328 -0.038708728 
-0.010359984 0.99969697 -0.022328954 
-0.041186124 0.99908 0.011960447 
-0.06739768 0.9973078 0.028891671 
-0.07364787 0.9969816 0.02457046 
-0.06844715 0.9975891 0.011440828 
-0.06543385 0.99785423 -0.0023356348 
-0.06473979 0.99775654 -0.017054504 
-0.058396984 0.99794686 -0.026301626 
-0.044490475 0.9986942 -0.025110431 
-0.023602255 0.9996722 -0.00992568 
-0.0034953163 0.99985975 0.016377954 
0.0048964475 0.99926114 0.038120843 
-0.9281533 -0.09843939 -0.35894477 
-0.8447828 0.48322013 -0.2298706 
-0.47995415 0.8671097 -0.13328469 
-0.24377553 0.96833855 -0.053794798 
-0.13450421 0.9909083 0.0030636897 
-0.07687189 0.9965809 0.03028581 
-0.03517951 0.9989954 0.027760385 
-0.01442912 0.9997325 0.01807696 
-0.026877513 0.9995713 0.011611222 
-0.04387709 0.99877477 -0.02288643 
-0.031023419 0.9961455 -0.08204756 
0.0022631441 0.99324924 -0.11597733 
0.026943492 0.9938786 -0.10714238 
0.040077742 0.99670213 -0.07056072 
0.047751382 0.9981336 -0.03806953 
0.049473975 0.99859124 -0.019183792 
0.03799655 0.99927497 0.0024075585 
0.010645325 0.9999047 0.008800662 
-0.007809535 0.9998913 -0.01250906 
-0.0036439684 0.99942726 -0.03364263 
-0.004560606 0.9998432 -0.01711089 
-0.027623007 0.99935573 0.022913728 
-0.054772425 0.99746436 0.045440275 
-0.063268 0.99712306 0.041747008 
-0.05847294 0.9979813 0.024786962 
-0.053023875 0.99857646 0.0057879006 
-0.047193334 0.9987993 -0.013146124 
-0.036604147 0.99908257 -0.02223112 
-0.023568211 0.99953943 -0.019121416 
-0.008516624 0.99994105 -0.0067366995 
0.0060399165 0.9999042 0.01245306 
0.012494208 0.99953514 0.027812073 
-0.75419563 -0.65521747 -0.043346856 
-0.9991579 -0.04094157 0.0027332832 
-0.696068 0.7154927 -0.05966247 
-0.34836304 0.9365087 -0.039932176 
-0.1637057 0.98650914 -0.00039182382 
-0.0743023 0.99703884 0.019820252 
-0.033487912 0.99929965 0.016701106 
-0.029123507 0.9994832 0.0136131635 
-0.05707368 0.9983099 0.010953476 
-0.08305858 0.99621457 -0.025650855 
-0.069014534 0.99374545 -0.08779044 
-0.024347406 0.9922123 -0.122155756 
0.017686812 0.993671 -0.11092912 
0.04859609 0.99604785 -0.074344024 
0.06505932 0.9968421 -0.0455318 
0.06589754 0.9972884 -0.032765158 
0.045562286 0.9988697 -0.013545196 
0.0031728281 0.9999949 0.00042142544 
-0.025603293 0.9995417 -0.016150052 
-0.018965162 0.99906325 -0.038897157 
-0.012798261 0.9996902 -0.021350319 
-0.033290613 0.99921095 0.021662517 
-0.057190966 0.9973667 0.044596504 
-0.062275693 0.9973224 0.03833878 
-0.055609647 0.9982416 0.02052714 
-0.04589083 0.99894285 0.0026754744 
-0.03279416 0.99939543 -0.011549482 
-0.017625786 0.9997629 -0.012791642 
-0.009142511 0.9999426 -0.0055877287 
-0.004327339 0.99998856 0.0020446035 
0.0014655621 0.99992776 0.011933683 
0.0039773094 0.9997892 0.02014851 
-0.68363553 -0.70331 0.1949298 
-0.969332 -0.072738975 0.23474365 
-0.7035617 0.7071723 0.07005982 
-0.35441756 0.9350432 0.0090808645 
-0.15882716 0.9872782 0.0074605644 
-0.06461671 0.9978663 0.009366363 
-0.03306417 0.9994411 0.004923734 
-0.046459626 0.9988938 0.007261113 
-0.08534086 0.9963415 0.004548967 
-0.11403116 0.99290335 -0.033762243 
-0.09470093 0.9912709 -0.091726616 
-0.033986125 0.9922347 -0.119646005 
0.027512684 0.9942047 -0.103923865 
0.06969305 0.99531263 -0.06705067 
0.084273055 0.9955773 -0.041520797 
0.078295656 0.99639374 -0.03270096 
0.050815567 0.9985757 -0.016265865 
-0.00049251853 0.9999954 -0.0030224093 
-0.035113398 0.99912286 -0.022816058 
-0.030673044 0.99845713 -0.04628848 
-0.025332522 0.99940145 -0.023558093 
-0.043373622 0.99885315 0.020277532 
-0.061576523 0.99744177 0.03630759 
-0.06394499 0.9977048 0.02227741 
-0.056029886 0.9984286 0.0010671052 
-0.041237272 0.9990102 -0.016681695 
-0.021334507 0.99943155 -0.026105179 
-0.0049873134 0.9997596 -0.021353537 
-0.005568146 0.99990344 -0.012739239 
-0.014109908 0.9998577 -0.009244617 
-0.018737096 0.99981153 -0.005082266 
-0.021008557 0.9997792 -0.00053363055 
-0.77573353 -0.38688642 0.49855438 
-0.8306772 0.3265408 0.45093963 
-0.5272994 0.8247424 0.20434178 
-0.27018368 0.9593031 0.08208873 
-0.12952599 0.9909283 0.035836358 
-0.0630238 0.99792117 0.013472272 
-0.04619375 0.9989225 0.004486422 
-0.067355506 0.99769557 0.008181549 
-0.1027392 0.9946997 0.0041507073 
-0.12199092 0.991987 -0.032865714 
-0.094427444 0.99197847 -0.08403698 
-0.023667967 0.9941003 -0.105851606 
0.04405905 0.9950306 -0.08929226 
0.08144285 0.9950994 -0.056073263 
0.08666876 0.99562174 -0.035011508 
0.07509871 0.9967694 -0.028479142 
0.046145216 0.998847 -0.013238969 
-0.00752614 0.99996775 -0.0028239395 
-0.046413317 0.9985946 -0.025588406 
-0.045492098 0.99790156 -0.0460752 
-0.037151743 0.99912816 -0.019046614 
-0.045555238 0.9987825 0.018929876 
-0.05703978 0.99810237 0.02320287 
-0.059211604 0.9982394 0.0035040623 
-0.053971037 0.99838704 -0.017620064 
-0.0426458 0.9984959 -0.034458995 
-0.028302807 0.9987245 -0.0418145 
-0.02145383 0.9990931 -0.0367798 
-0.032725018 0.9989787 -0.03115622 
-0.047876116 0.9983824 -0.030668152 
-0.05505324 0.9981338 -0.026423173 
-0.05820794 0.99810904 -0.019757211 
-0.6765828 0.36657244 0.63863957 
-0.5371953 0.7131765 0.45033392 
-0.33268732 0.9112773 0.24267864 
-0.18429933 0.9744739 0.12819728 
-0.10546177 0.9924131 0.06319956 
-0.06698678 0.99752295 0.021468041 
-0.058266267 0.99828196 0.006172743 
-0.07968124 0.99675643 0.0112918 
-0.105798975 0.9943255 0.011109115 
-0.11235777 0.99351287 -0.017551228 
-0.07895771 0.99513876 -0.05886157 
-0.008005642 0.9969554 -0.0775623 
0.054661915 0.9962671 -0.06681305 
0.08299848 0.9956902 -0.041380655 
0.079281636 0.996515 -0.025929382 
0.059995823 0.9979394 -0.022749934 
0.025741957 0.9996057 -0.011214799 
-0.03158282 0.99948347 -0.0059441375 
-0.070804924 0.9970509 -0.029599706 
-0.06339911 0.9970453 -0.04337407 
-0.042122588 0.9990149 -0.013967998 
-0.038984064 0.9991303 0.01479506 
-0.046649683 0.99884945 0.011117905 
-0.049725506 0.99873805 -0.0070506763 
-0.049208242 0.9984769 -0.024950268 
-0.04862946 0.9979855 -0.040745515 
-0.04998232 0.99774665 -0.044761587 
-0.057674304 0.99764484 -0.037128136 
-0.07349904 0.9968028 -0.031339616 
-0.08328694 0.99604064 -0.031087246 
-0.083776005 0.9961037 -0.027549677 
-0.08370738 0.99624985 -0.021892907 
-0.37460408 0.85781115 0.35189742 
-0.30592388 0.9125516 0.2714043 
-0.20698406 0.960701 0.18496293 
-0.12439136 0.98465526 0.12239685 
-0.07998045 0.99453074 0.06716907 
-0.055874307 0.99825907 0.018893333 
-0.054088462 0.998536 0.0006344138 
-0.07781981 0.99689776 0.01179244 
-0.096004 0.99511594 0.022968063 
-0.09447427 0.99548644 0.009025149 
-0.06343719 0.99775237 -0.021587867 
-0.003198019 0.9991455 -0.041209236 
0.050185785 0.99802375 -0.03781652 
0.074505016 0.9969983 -0.021061145 
0.06554426 0.9977139 -0.01646014 
0.039306935 0.9989559 -0.023287537 
0.0022458048 0.9998105 -0.019338546 
-0.052086566 0.9985362 -0.014574454 
-0.08363724 0.9960563 -0.029607177 
-0.067394465 0.9971775 -0.03309461 
-0.040432617 0.99916536 -0.0058143265 
-0.036585163 0.9992645 0.01149631 
-0.04371448 0.9990402 0.0027789583 
-0.04389274 0.99892205 -0.015107224 
-0.044198286 0.9984035 -0.035172343 
-0.054388195 0.9971913 -0.05149203 
-0.07212198 0.9962492 -0.04781313 
-0.0902677 0.99545413 -0.030378679 
-0.10265627 0.994551 -0.01817187 
-0.10126284 0.99472773 -0.016208608 
-0.09113194 0.99570304 -0.016445817 
-0.084597826 0.99628323 -0.016217552 
-0.15353708 0.9813713 0.11548523 
-0.14335716 0.98204184 0.12264875 
-0.107817754 0.98741275 0.1157218 
-0.068890855 0.99360186 0.08949564 
-0.045593392 0.9979244 0.04547693 
-0.030758707 0.9995261 0.0011995586 
-0.03821193 0.99923134 -0.008751936 
-0.0631558 0.9979057 0.013988451 
-0.071320005 0.99681675 0.035634153 
-0.06479495 0.9973926 0.03177507 
-0.043340206 0.9990414 0.0061606634 
-0.0019328804 0.99987817 -0.015488902 
0.04009006 0.999056 -0.016733691 
0.062343135 0.9980153 -0.008887563 
0.049825463 0.9986444 -0.015057793 
0.02081245 0.9994017 -0.027626922 
-0.012826844 0.99967134 -0.022199053 
-0.056256965 0.99837893 -0.008642452 
-0.07515155 0.99709094 -0.012727492 
-0.05471684 0.99843085 -0.011912746 
-0.035013508 0.999364 0.006766284 
-0.039541095 0.99912465 0.0136585 
-0.046323463 0.99892503 0.0017232914 
-0.04276927 0.99885803 -0.021296546 
-0.045738634 0.99765855 -0.050846845 
-0.06762047 0.9953173 -0.06907298 
-0.09655123 0.9937955 -0.0552114 
-0.114450544 0.9931379 -0.024048226 
-0.11487961 0.9933751 -0.0029271753 
-0.09941717 0.9950427 0.002529938 
-0.077511705 0.9969908 0.0011613434 
-0.06388164 0.99795663 -0.0013056792 
-0.05077483 0.9986992 0.004684506 
-0.05149342 0.99787873 0.039832693 
-0.0443413 0.99733204 0.05798847 
-0.036126893 0.99851847 0.04069078 
-0.02648841 0.99964553 0.0026985859 
-0.015056638 0.99955904 -0.025593812 
-0.02356564 0.9995996 -0.01566298 
-0.038936652 0.9991021 0.016702399 
-0.033487845 0.9987147 0.03804829 
-0.024706025 0.99918365 0.0319631 
-0.014869888 0.9998771 0.0049857204 
0.00790209 0.9998564 -0.014991826 
0.036733214 0.99920356 -0.01558543 
0.052040596 0.99857694 -0.011664569 
0.035643414 0.99919885 -0.018202536 
0.007274347 0.999683 -0.024103746 
-0.021268034 0.9997417 -0.008024997 
-0.052674554 0.9985021 0.014805023 
-0.06028831 0.99805564 0.01582383 
-0.04121263 0.99905336 0.01392354 
-0.032050285 0.9992264 0.022793759 
-0.041624453 0.9988184 0.025086995 
-0.04473467 0.9989098 0.013344982 
-0.038905542 0.9991264 -0.015259073 
-0.047651052 0.9974799 -0.05256618 
-0.079584666 0.9944533 -0.06876677 
-0.11149854 0.99270535 -0.045871615 
-0.11865456 0.9929013 -0.008253397 
-0.09982397 0.99489415 0.014864716 
-0.06451127 0.9976309 0.02389756 
-0.026984094 0.99928325 0.026551008 
-0.005724844 0.999639 0.026250515 
-0.028002396 0.9994288 -0.01892008 
-0.029123407 0.9995223 0.01034643 
-0.035044573 0.9991467 0.021860845 
-0.041072275 0.9991553 0.0013298346 
-0.033874013 0.999042 -0.027709432 
-0.020917403 0.99922466 -0.033354465 
-0.025961932 0.99962413 -0.008812225 
-0.030318854 0.99939144 0.017253738 
-0.01684382 0.9995769 0.023714678 
-0.008478803 0.999947 0.005838694 
-0.0013338666 0.9997485 -0.022388125 
0.018327339 0.99926347 -0.033714358 
0.044146724 0.99858934 -0.02950489 
0.057553314 0.9980219 -0.025294356 
0.041435365 0.9988044 -0.025940655 
0.011388883 0.999749 -0.019298669 
-0.02083881 0.9997258 0.010678545 
-0.04864642 0.9980181 0.03991775 
-0.050487522 0.99788517 0.040942542 
-0.035854947 0.9987419 0.035057407 
-0.036029845 0.9985772 0.03931389 
-0.047578435 0.99799114 0.041833624 
-0.045504138 0.9985122 0.030048378 
-0.036379807 0.9993327 -0.0032699062 
-0.047241364 0.99801475 -0.041652154 
-0.077892825 0.99570847 -0.049975246 
-0.09790119 0.99492556 -0.023207946 
-0.08724382 0.99616027 0.0073084133 
-0.052986607 0.9983111 0.023819078 
-0.003097672 0.9994473 0.03309924 
0.04803956 0.998218 0.035399385 
0.077258274 0.99647605 0.03265862 
-0.05368445 0.99855745 -0.0009990555 
-0.05797514 0.99822646 0.013520623 
-0.06720521 0.9976867 0.010241325 
-0.06994721 0.9974519 -0.014038861 
-0.056398116 0.9979084 -0.031592958 
-0.042746056 0.9988678 -0.02087832 
-0.04602136 0.9989367 0.0027474936 
-0.044114698 0.99892896 0.013960339 
-0.03110585 0.9994936 0.0067220633 
-0.024243668 0.9994991 -0.02034728 
-0.007163997 0.9989338 -0.04560656 
0.027108382 0.998504 -0.047487553 
0.060463887 0.99728817 -0.041957088 
0.073939316 0.99645424 -0.04014946 
0.056423392 0.9977414 -0.03644896 
0.022427889 0.9996044 -0.016970968 
-0.01418493 0.9996139 0.023891507 
-0.039010208 0.9978148 0.053328242 
-0.03896885 0.9979104 0.05154137 
-0.034766 0.9984001 0.04459543 
-0.046945523 0.99773437 0.048190583 
-0.06027822 0.996946 0.049652766 
-0.052492235 0.99803025 0.034354657 
-0.03874891 0.9992479 -0.0014669729 
-0.045012187 0.9984908 -0.03146628 
-0.060504112 0.99779624 -0.027242452 
-0.059051957 0.99824387 -0.004693622 
-0.037854884 0.9992564 0.007331737 
-0.005451339 0.99991775 0.011606698 
0.045308013 0.99888045 0.013606562 
0.10305349 0.9946624 0.0051660226 
0.13821274 0.99037486 -0.0074085705 
-0.07755069 0.99697757 -0.00466756 
-0.08206904 0.99662614 0.0010697028 
-0.08496271 0.99634546 -0.008787494 
-0.07687838 0.99661297 -0.029195342 
-0.05830107 0.99774116 -0.033369415 
-0.04731667 0.9988015 -0.012521798 
-0.050845608 0.9986655 0.009050787 
-0.050399493 0.9985943 0.016412009 
-0.046955332 0.9988844 0.0050350823 
-0.04235327 0.9987554 -0.026340794 
-0.013633224 0.9989458 -0.043835767 
0.03190152 0.9988014 -0.037124712 
0.065617576 0.9972466 -0.034549925 
0.07325426 0.99659634 -0.037809167 
0.054251514 0.99798495 -0.03290652 
0.023039902 0.9997045 -0.007761835 
-0.008176944 0.9994813 0.031148788 
-0.0245879 0.9984584 0.049763545 
-0.022588318 0.99890554 0.040957227 
-0.027376592 0.999006 0.035181325 
-0.047023192 0.9980247 0.041661598 
-0.060581658 0.997305 0.04138586 
-0.05140113 0.9984075 0.023246301 
-0.037456647 0.9992848 -0.005204135 
-0.035991196 0.9992115 -0.016769804 
-0.029803317 0.999533 -0.0067513203 
-0.010539436 0.9999266 -0.0059809554 
0.005113945 0.99977964 -0.020363873 
0.021359788 0.9994624 -0.024872143 
0.06410904 0.99759364 -0.026401173 
0.1179158 0.9921114 -0.042556155 
0.14822379 0.98696005 -0.062766865 
-0.051782385 0.99789447 -0.039055362 
-0.056616653 0.9979309 -0.030472638 
-0.054504257 0.9979128 -0.034630906 
-0.042159926 0.99807656 -0.045449603 
-0.026551338 0.99888074 -0.03914517 
-0.021377072 0.99965113 -0.015512096 
-0.028173251 0.9995916 0.0047868188 
-0.034729257 0.9992947 0.014283314 
-0.03969341 0.9992064 0.0033249995 
-0.035273433 0.99917 -0.020373099 
-0.006581706 0.99980706 -0.018510485 
0.031937886 0.9994845 -0.0032796394 
0.055428416 0.99845225 -0.0045811906 
0.055237178 0.9984109 -0.011164064 
0.035810564 0.9993213 -0.008641639 
0.009986029 0.99989027 0.010947469 
-0.012144715 0.99933714 0.03432032 
-0.017285177 0.9992848 0.033631794 
-0.009321268 0.99985003 0.014596398 
-0.0151457265 0.9998407 0.009454881 
-0.03328722 0.9992679 0.018858353 
-0.042308036 0.9989254 0.018923411 
-0.03228475 0.9994584 0.0063765463 
-0.020664264 0.99977684 -0.004395378 
-0.015149687 0.99988526 4.57044e-06 
0.0023587951 0.9999954 0.0019474211 
0.021718493 0.9995427 -0.021041485 
0.019241223 0.9987662 -0.045781244 
0.024813794 0.9987647 -0.04305103 
0.07557129 0.9963893 -0.038695637 
0.13789023 0.9889239 -0.054916557 
0.16738306 0.9830253 -0.07512839 
0.00095397845 0.9984325 -0.05596205 
-0.0052500414 0.99928623 -0.037410725 
-0.0063574747 0.99946433 -0.03210481 
-0.0008299404 0.9992601 -0.038451906 
0.007005007 0.99943 -0.033024922 
0.007745998 0.99982035 -0.017301897 
-0.0015710313 0.9999962 -0.0022919357 
-0.011429381 0.9999052 0.0076834024 
-0.015467747 0.9998787 0.0018411385 
-0.011802181 0.99992305 -0.0038401699 
0.003314666 0.9999036 0.013487914 
0.026205258 0.9993112 0.026275609 
0.04280237 0.9988483 0.021683779 
0.039825745 0.9990697 0.01654371 
0.018478407 0.9996811 0.017213002 
-0.007520784 0.9995951 0.027441833 
-0.026341254 0.99911237 0.032874044 
-0.025359644 0.9995761 0.0143002 
-0.012236394 0.9998181 -0.014636204 
-0.011414107 0.9997092 -0.021244695 
-0.017064048 0.9998127 -0.009128122 
-0.014625096 0.9998881 -0.003137443 
-0.0030529948 0.99999005 -0.0032675855 
0.002977382 0.9999927 0.0024130524 
0.0051325765 0.999889 0.0139874015 
0.021926124 0.9996979 0.011102936 
0.03335218 0.9993752 -0.011695968 
0.021065349 0.99952286 -0.022588762 
0.040868033 0.9991582 -0.0035777467 
0.13375026 0.9909206 0.013680744 
0.250697 0.9679719 0.013465645 
0.32318828 0.9463119 0.0065848078 
0.04122191 0.99828464 -0.04157611 
0.030968191 0.9993871 -0.016323928 
0.019746516 0.99978524 -0.0062965113 
0.013484097 0.99981725 -0.013554258 
0.014311642 0.9997728 -0.015798517 
0.014742993 0.99980426 -0.013194844 
0.006795509 0.99996006 -0.0058010924 
0.0011352017 0.99998844 0.0046782554 
0.005232513 0.99994814 0.00874288 
0.0074590007 0.9998289 0.016934274 
0.008461328 0.9994662 0.0315569 
0.021615118 0.99924505 0.03228039 
0.03961776 0.9987983 0.028852176 
0.039857514 0.99876064 0.029809644 
0.016678207 0.9994233 0.029576642 
-0.015475043 0.9994164 0.030453667 
-0.039807733 0.99894077 0.023079382 
-0.04021129 0.99918723 -0.0028245468 
-0.023667915 0.9991786 -0.0328962 
-0.013733744 0.99920046 -0.037550166 
-0.0077397088 0.9996796 -0.024098381 
0.0028122242 0.9998721 -0.015747467 
0.015040663 0.9998505 -0.008539104 
0.017070433 0.9998432 0.00473288 
0.016072154 0.99965894 0.020587163 
0.02992408 0.99916774 0.02772078 
0.03806368 0.99898255 0.024187917 
0.034242257 0.9988407 0.03383577 
0.08752192 0.99322075 0.076501004 
0.24987915 0.9573698 0.14492628 
0.501445 0.8336435 0.23149818 
0.70223844 0.66255116 0.2605517 
0.06420281 0.99780804 -0.01603283 
0.04825667 0.9987789 0.010586953 
0.025365401 0.999476 0.020109339 
0.008349914 0.9999194 0.009570217 
0.0038748023 0.999991 -0.0017191072 
0.0041733715 0.999938 -0.0103249075 
-0.00067743973 0.99997467 -0.007091478 
0.0024529689 0.9999632 0.008224317 
0.015648585 0.9995929 0.02385905 
0.016894132 0.99916863 0.037103105 
0.009667472 0.9991192 0.040834468 
0.02000434 0.9992852 0.032077592 
0.045707203 0.99848443 0.03065554 
0.05639143 0.99789953 0.031884886 
0.03612711 0.99903774 0.024870828 
-0.0031175578 0.9998842 0.014900109 
-0.037277672 0.99930364 0.0016668661 
-0.0438053 0.9988803 -0.017867152 
-0.030451406 0.99883044 -0.037557147 
-0.02075866 0.99902487 -0.038968276 
-0.013496213 0.9994442 -0.030482208 
-0.0020169525 0.99969256 -0.024712238 
0.009994639 0.9998607 -0.013374743 
0.010603816 0.9999402 0.002677549 
0.00842611 0.999716 0.022293191 
0.018198594 0.99882483 0.044921294 
0.023789527 0.99778724 0.062087424 
0.033684395 0.99517876 0.09211165 
0.117029436 0.9762042 0.18256366 
0.33838487 0.8598845 0.3822231 
0.6819257 0.32494703 0.6552762 
0.7420331 -0.37903097 0.55292165 
0.06696854 0.99773306 -0.006640985 
0.048598778 0.9986409 0.018832263 
0.020425625 0.99942285 0.027144395 
-0.0015963555 0.99988526 0.0150634805 
-0.00903078 0.9999579 -0.0016571088 
-0.009715541 0.99983567 -0.015305544 
-0.011050979 0.99986976 -0.011759418 
-0.0015680422 0.999953 0.009576164 
0.015107986 0.99935085 0.03270823 
0.017356735 0.9987322 0.047252078 
0.013031102 0.9989074 0.044880796 
0.031073188 0.9989916 0.032407153 
0.06945476 0.997169 0.028812772 
0.09265796 0.9953501 0.026317023 
0.07507801 0.9970715 0.0145558445 
0.026885753 0.99963856 3.5108562e-05 
-0.01988815 0.99974245 -0.010936212 
-0.037157204 0.99910057 -0.02043185 
-0.03429457 0.99890584 -0.03179614 
-0.032073103 0.9988217 -0.036423355 
-0.030921422 0.99886584 -0.036206428 
-0.027822074 0.9991288 -0.031107938 
-0.021175325 0.9996343 -0.016819326 
-0.01774952 0.9998397 -0.0023676457 
-0.013710214 0.9997521 0.017543914 
-0.0040492793 0.99859464 0.052843064 
0.0027059056 0.99608445 0.08836535 
0.024780178 0.99076444 0.13331093 
0.10638736 0.9615077 0.2533473 
0.27216703 0.7977392 0.5380867 
0.44798172 0.065097846 0.8916696 
0.37713245 -0.6502563 0.6594983 
0.064123854 0.99751335 -0.029246675 
0.04852401 0.998807 -0.0054917936 
0.023533732 0.99971074 0.004963398 
0.0032317229 0.99999285 -0.002010601 
-0.0049543777 0.9998626 -0.01581988 
-0.00782976 0.9995925 -0.027449936 
-0.008177949 0.9997244 -0.02200842 
0.0010940194 0.9999994 0.00014659451 
0.016423676 0.9995828 0.02376234 
0.024120774 0.99890876 0.039993282 
0.031641886 0.99869 0.040214326 
0.060608763 0.99767286 0.031233413 
0.10600385 0.99398154 0.027640302 
0.13207254 0.99089056 0.026322074 
0.11018354 0.9937584 0.017432494 
0.053377446 0.99857074 0.0026971856 
-0.0011566774 0.99995273 -0.009658808 
-0.026054354 0.99948126 -0.018931124 
-0.032276437 0.99908143 -0.028187977 
-0.03901375 0.99863327 -0.034778092 
-0.04926571 0.99811435 -0.036615323 
-0.059967883 0.99778765 -0.028702863 
-0.061046254 0.9980327 -0.014289093 
-0.05162399 0.99865705 -0.004384203 
-0.03805659 0.99921745 0.010783311 
-0.026297003 0.99863565 0.045114245 
-0.012379174 0.99629277 0.085132845 
0.023710161 0.99112934 0.13076878 
0.092422605 0.96804273 0.23313366 
0.17875792 0.8595892 0.47869816 
0.23725608 0.39686543 0.8866834 
0.19679129 -0.3066828 0.9312459 
0.06591146 0.99599534 -0.06040672 
0.053811375 0.9978185 -0.038244337 
0.034565948 0.9991142 -0.02400011 
0.019307509 0.9995429 -0.023267947 
0.012547167 0.999455 -0.030535055 
0.0095929 0.9992216 -0.038263567 
0.010421335 0.99940616 -0.032844715 
0.017927645 0.9997445 -0.01377454 
0.030688107 0.99948424 0.009469887 
0.04222937 0.99860406 0.03172863 
0.056350783 0.9975134 0.04232676 
0.08537255 0.9955295 0.04040682 
0.12246321 0.9918341 0.035609234 
0.13728216 0.99004453 0.031073341 
0.10832466 0.9939444 0.01844877 
0.052953016 0.9985871 -0.004458569 
0.0058532483 0.9997106 -0.023332685 
-0.013966736 0.9995025 -0.02828196 
-0.019791383 0.99947673 -0.025582634 
-0.031722825 0.99923736 -0.022771077 