# OOMMF OVF 2.0
# Segment count: 1
# Begin: Segment
# Begin: Header
# Title: m
# meshtype: rectangular
# meshunit: m
# xmin: 0
# ymin: 0
# zmin: 0
# xmax: 1.6e-07
# ymax: 1.6e-07
# zmax: 5e-09
# valuedim: 3
# valuelabels: m_x m_y m_z
# valueunits: 1 1 1
# Desc: Total simulation time:  7.152115287246208e-12  s
# xbase: 2.5e-09
# ybase: 2.5e-09
# zbase: 2.5e-09
# xnodes: 32
# ynodes: 32
# znodes: 1
# xstepsize: 5e-09
# ystepsize: 5e-09
# zstepsize: 5e-09
# End: Header
# Begin: Data Text
-0.21648592 -0.9337895 -0.28490546 
-0.34606475 -0.8208028 -0.45444703 
-0.5200263 -0.18227696 -0.8344745 
-0.32643038 0.8072828 -0.4916683 
-0.11149807 0.97795624 -0.17655008 
-0.012663116 0.99928063 -0.035749197 
0.0037869795 0.9991034 0.042168416 
-0.042656954 0.99504197 0.08984444 
-0.10209163 0.991077 0.0856963 
-0.1272731 0.9906862 0.048399318 
-0.1294863 0.99138397 0.019779772 
-0.12873447 0.99167216 -0.0037038624 
-0.10560941 0.9938688 -0.03273216 
-0.056422453 0.9975498 -0.04136369 
-0.019864012 0.9995852 -0.020855548 
-0.007212163 0.99995613 0.005986191 
-0.00069103634 0.99963814 0.026890622 
0.010977299 0.99914765 0.03979215 
0.019776896 0.9982638 0.055481948 
0.014722244 0.9973774 0.07086306 
0.01605792 0.9978041 0.06425787 
0.04445323 0.9984533 0.033392742 
0.09659096 0.9952847 -0.00886874 
0.14892657 0.9876837 -0.04797783 
0.18352509 0.9794662 -0.083453946 
0.22054578 0.9680611 -0.11923696 
0.27242512 0.94986695 -0.15341854 
0.30205035 0.93413556 -0.1901483 
0.2891456 0.9315374 -0.22052905 
0.28471133 0.9249024 -0.25198257 
0.32454735 0.89052665 -0.3187968 
0.35684785 0.84759986 -0.3927263 
-0.43848437 -0.781564 -0.44372222 
-0.63989764 -0.5993204 -0.4809845 
-0.7612619 0.087924704 -0.6424559 
-0.45628613 0.80898875 -0.37059426 
-0.19379054 0.96835196 -0.15728863 
-0.064935215 0.99677175 -0.04721799 
-0.028185287 0.9994344 0.018343382 
-0.049563613 0.9973803 0.05268844 
-0.08529636 0.99506056 0.05078505 
-0.10483849 0.9939701 0.0321324 
-0.11244468 0.99353105 0.015883107 
-0.112163335 0.99366397 -0.0071712746 
-0.09056717 0.99515784 -0.038190115 
-0.048244305 0.99769294 -0.047764037 
-0.014034668 0.99956447 -0.025961544 
0.00038825034 0.9999904 0.004381501 
0.006786092 0.9995654 0.02868716 
0.014960208 0.99899507 0.042249043 
0.019747023 0.9985312 0.050453376 
0.015234603 0.9984493 0.053543516 
0.01808073 0.99890894 0.043058652 
0.0404569 0.998968 0.020648263 
0.0784676 0.9968877 -0.007610643 
0.11948438 0.99219364 -0.035713557 
0.15397085 0.986026 -0.063606024 
0.19323885 0.9770618 -0.08949343 
0.24223517 0.96365505 -0.11265506 
0.27296826 0.95126235 -0.14348638 
0.26872733 0.9473741 -0.17397718 
0.26554063 0.94246936 -0.2030757 
0.2927204 0.9212843 -0.25602758 
0.31605232 0.89535224 -0.31377596 
-0.5351287 0.82917213 -0.1615885 
-0.6248838 0.73633504 -0.25948218 
-0.5425853 0.79604834 -0.2681574 
-0.33677006 0.92667466 -0.16691294 
-0.16849633 0.98246044 -0.07987773 
-0.07977449 0.9966906 -0.015618666 
-0.053131156 0.99840534 0.019079274 
-0.05817801 0.9979611 0.026247708 
-0.07139 0.99733096 0.01531167 
-0.0772032 0.9970026 0.0050458866 
-0.08146016 0.9966767 7.096848e-05 
-0.08398643 0.996315 -0.017396972 
-0.06924505 0.99652565 -0.046278235 
-0.03386735 0.99795306 -0.054248825 
-0.0022232283 0.99958396 -0.02875693 
0.009022263 0.99994075 0.0060906056 
0.011189846 0.99937004 0.033681456 
0.015797267 0.99866176 0.049246732 
0.018572213 0.9984597 0.052280992 
0.017979506 0.99885845 0.044257198 
0.025247414 0.9992888 0.02800961 
0.042045154 0.9990827 0.008120425 
0.06425438 0.99785167 -0.012784738 
0.09154831 0.99524367 -0.03330061 
0.12155079 0.99117327 -0.05292409 
0.15492916 0.9857551 -0.06545291 
0.19235541 0.9785334 -0.07397204 
0.22122373 0.97058165 -0.09503381 
0.22822163 0.9660454 -0.12112478 
0.22866994 0.9628486 -0.14364055 
0.24247389 0.95346266 -0.17920795 
0.25346184 0.9423862 -0.21832433 
-0.0248045 0.9985867 -0.047004577 
-0.06503852 0.99455124 -0.08147394 
-0.08898825 0.99383545 -0.06612376 
-0.07829478 0.9965488 -0.027577478 
-0.0578246 0.9983092 0.0059157913 
-0.053525142 0.9981027 0.030430373 
-0.06000276 0.997737 0.03034002 
-0.064052425 0.99790156 0.009475114 
-0.060019493 0.9980654 -0.016218485 
-0.0423322 0.9987447 -0.026777022 
-0.030196121 0.9993686 -0.018726692 
-0.036288682 0.9991812 -0.017889723 
-0.037414115 0.998613 -0.037046805 
-0.013427935 0.998735 -0.048458025 
0.012100545 0.9995471 -0.027552634 
0.01413066 0.9998678 0.008052003 
0.008004452 0.99923915 0.03817137 
0.00930869 0.9984318 0.05520227 
0.013775484 0.9984292 0.054310065 
0.021849148 0.9990035 0.038917623 
0.03714981 0.9991422 0.018301554 
0.050676174 0.99871457 -0.0011514365 
0.05831915 0.9981426 -0.01761843 
0.07102577 0.9969035 -0.033745375 
0.09393938 0.9944342 -0.047709107 
0.1187152 0.99173707 -0.04862437 
0.14090051 0.989082 -0.043172568 
0.16408399 0.9850762 -0.051975332 
0.18134888 0.98098886 -0.06909107 
0.18989958 0.97832966 -0.082518816 
0.1984546 0.9746646 -0.10317321 
0.20208819 0.9710368 -0.12746702 
0.12153731 0.9924893 -0.01391767 
0.12180033 0.9925321 -0.0066914866 
0.09792036 0.9947551 0.02956304 
0.046483546 0.9971464 0.059483934 
-0.010712012 0.99801195 0.06210801 
-0.05006432 0.9974107 0.05163001 
-0.06834145 0.99707496 0.034220174 
-0.0753525 0.99712247 0.008303244 
-0.06837934 0.9972955 -0.026944043 
-0.030394014 0.99817455 -0.05219056 
0.013236194 0.9989656 -0.0435049 
0.021678763 0.99957675 -0.019401683 
0.006666809 0.9998135 -0.018125527 
0.007523612 0.99939305 -0.034015514 
0.017627617 0.9994892 -0.026661502 
0.01272778 0.99990463 0.0053673857 
0.0054408354 0.99927944 0.037563883 
0.006666787 0.9985463 0.053486936 
0.011481546 0.9988703 0.04611296 
0.023448162 0.9994067 0.025230361 
0.040558085 0.9991604 0.005785436 
0.049204353 0.99877256 -0.0056992373 
0.04953084 0.99871635 -0.010595708 
0.056832667 0.9982596 -0.015745064 
0.07691246 0.9968543 -0.019130321 
0.09398868 0.9954936 -0.012597201 
0.10185381 0.99478805 -0.0047591277 
0.11912986 0.9928405 -0.008700552 
0.14373796 0.9895089 -0.014546732 
0.16017169 0.9869859 -0.014278749 
0.16932866 0.9853294 -0.021300675 
0.17160253 0.9845472 -0.034920916 
0.120826505 0.9926081 0.011414992 
0.13621365 0.9899677 0.03754722 
0.12589568 0.9881981 0.0872637 
0.06733353 0.991297 0.11312205 
0.00067062373 0.9953755 0.09605803 
-0.039848104 0.99652034 0.073208794 
-0.06570733 0.99609345 0.05899456 
-0.09177374 0.995341 0.02956354 
-0.08987711 0.9956056 -0.026300266 
-0.037099965 0.9968454 -0.07016312 
0.028259099 0.9973258 -0.06739933 
0.056830347 0.99781466 -0.033710085 
0.04581188 0.9988811 -0.011740245 
0.029789489 0.99945664 -0.01411309 
0.019408716 0.99978274 -0.007607135 
0.008021376 0.99983096 0.016547723 
0.0043688617 0.9993277 0.03640282 
0.006127711 0.9992762 0.037543304 
0.008952585 0.9997732 0.019326277 
0.021215878 0.99977475 -0.0005964987 
0.036527786 0.9993188 -0.00526333 
0.04129211 0.999137 0.004504796 
0.039008483 0.9991018 0.016554868 
0.043567494 0.99881774 0.021566892 
0.061642174 0.9978062 0.024149742 
0.07378297 0.99684465 0.029274248 
0.072326854 0.9969012 0.030933445 
0.08251398 0.9961918 0.028167488 
0.10550946 0.9937453 0.036580306 
0.12319852 0.9908478 0.055161793 
0.13319126 0.98910034 0.06277532 
0.13689089 0.98889256 0.057899427 
0.12619993 0.9844577 0.12213388 
0.11376438 0.98372793 0.13905804 
0.07414411 0.984689 0.15776703 
0.015953282 0.99101686 0.13278197 
-0.007776017 0.9968204 0.079301015 
-0.0002055739 0.998479 0.055132523 
-0.0045511434 0.998124 0.061054952 
-0.038305752 0.99795043 0.051259942 
-0.05400477 0.99853384 0.003693926 
-0.024742652 0.9990271 -0.036506422 
0.014694678 0.99892837 -0.043888707 
0.040177498 0.9986896 -0.031702332 
0.04680326 0.9987998 -0.014441137 
0.03968504 0.9992122 -0.00056837464 
0.023444692 0.9996203 0.014478862 
0.008208527 0.9996839 0.023766952 
0.004600862 0.99984294 0.017115325 
0.0033374235 0.9999913 0.0025044207 
0.0038212535 0.9999314 -0.011073523 
0.016780289 0.9997759 -0.012906947 
0.03229827 0.9994706 0.003933622 
0.03768597 0.9989136 0.027412422 
0.03355964 0.9985812 0.04134631 
0.031905167 0.998479 0.04496412 
0.043541547 0.99796456 0.046591993 
0.04946347 0.9976101 0.048243422 
0.043086182 0.99805045 0.045155253 
0.046806578 0.997918 0.04437302 
0.061749652 0.99587804 0.066437975 
0.074433126 0.9920753 0.10122428 
0.08375262 0.98921317 0.12017882 
0.09004529 0.9886342 0.12039278 
-0.057661276 0.9854419 0.15993597 
-0.08474053 0.9866183 0.13929638 
-0.11199975 0.9891507 0.09506259 
-0.103033826 0.9944775 0.01996631 
-0.033415645 0.9988888 -0.03323685 
0.045181975 0.99872845 -0.022363845 
0.07208135 0.9970831 0.025090097 
0.03721476 0.9981927 0.047184072 
0.0082602985 0.99977005 0.01978815 
0.016000433 0.9998681 0.0028062188 
0.0156114735 0.9998422 0.008475785 
0.009250836 0.9999556 0.0017804735 
0.02028607 0.99976796 -0.0072499807 
0.036519058 0.9993276 0.003293026 
0.033420682 0.9992109 0.021466885 
0.016424604 0.9997442 0.015550418 
0.004349438 0.9999133 -0.0124390265 
-0.0015393862 0.99961305 -0.0277755 
0.0025846295 0.9997602 -0.021747679 
0.020213852 0.99978125 -0.0053734863 
0.03677784 0.99918425 0.016683497 
0.039397694 0.99867606 0.033077516 
0.027148912 0.99891245 0.03790535 
0.016929232 0.99912053 0.03836193 
0.022132343 0.9989998 0.038854517 
0.024734385 0.99891794 0.03938544 
0.020163784 0.99914914 0.035977907 
0.02115546 0.99901456 0.039017823 
0.026366053 0.9973567 0.06770823 
0.030170433 0.99396557 0.10546192 
0.036872037 0.9916125 0.123875715 
0.045173734 0.9914262 0.12261131 
-0.25842717 0.96106935 -0.09778204 
-0.2552136 0.96154994 -0.10142915 
-0.21489495 0.97067416 -0.10775888 
-0.1370145 0.98289156 -0.12309037 
-0.036494717 0.9928976 -0.113236986 
0.047890197 0.9964441 -0.06932398 
0.0813894 0.99654895 -0.016307667 
0.068852745 0.9976178 0.004248344 
0.06383183 0.99795556 -0.0031873821 
0.070048414 0.9974082 0.016434707 
0.039769188 0.99799275 0.049283504 
-0.0039782883 0.9991854 0.040159836 
-0.005055352 0.99996096 0.007249532 
0.027228005 0.9996286 0.0011863776 
0.041757386 0.99903804 0.013392138 
0.026829619 0.9996398 0.0006189361 
0.008485199 0.99956095 -0.028390381 
0.004507736 0.99952704 -0.030420465 
0.0152825555 0.9998373 -0.009595069 
0.030846715 0.9995074 0.0057863942 
0.03693712 0.9992298 0.013250607 
0.025922598 0.9995317 0.01625918 
0.0041517466 0.9998057 0.019271625 
-0.007159184 0.9996908 0.023816308 
-0.00015981506 0.9996909 0.024863183 
0.0074140923 0.99969864 0.023401301 
0.00951773 0.99975973 0.019746885 
0.009056726 0.9995979 0.026870677 
0.005389704 0.9984432 0.055517755 
0.0010954797 0.9963717 0.08510133 
0.0059114476 0.99560857 0.093427114 
0.015939647 0.9961495 0.08620951 
-0.40626225 0.8315854 -0.37870425 
-0.36487073 0.87745535 -0.31135437 
-0.23558657 0.9510917 -0.19980875 
-0.12776513 0.9825772 -0.13497484 
-0.05468173 0.9933577 -0.10124495 
0.0070688543 0.99694 -0.077850446 
0.05739076 0.9969416 -0.053046115 
0.0887129 0.99558765 -0.030584402 
0.10207063 0.99475044 -0.0072909733 
0.09512688 0.995106 0.026738033 
0.054461617 0.9968088 0.058361698 
0.0014902526 0.9987478 0.050005756 
-0.008129857 0.99991935 0.009760589 
0.027132712 0.99957997 -0.010191702 
0.051388625 0.99866617 -0.005015714 
0.04064039 0.99911356 -0.010982075 
0.023280252 0.99949247 -0.0217467 
0.023931846 0.99968106 -0.008074147 
0.03251983 0.99940616 0.011394924 
0.03240439 0.9994055 0.011771929 
0.018572494 0.9998079 0.0062689525 
-0.0043275417 0.99996245 0.0075227027 
-0.024682729 0.9995806 0.015149831 
-0.029683402 0.9993476 0.020572808 
-0.017334722 0.9996858 0.01810472 
-0.0012582518 0.9999066 0.013614402 
0.0065556015 0.9999272 0.010133572 
0.0046387403 0.99980074 0.019417187 
-0.0015825905 0.9990205 0.044222068 
-0.0052874424 0.99782705 0.06567546 
0.0018779988 0.99769783 0.0677899 
0.013406954 0.99817693 0.058848593 
-0.78250605 0.44123307 -0.43931505 
-0.7233267 0.6242018 -0.29524684 
-0.36697966 0.92737585 -0.07280143 
-0.16644278 0.9858385 -0.020477107 
-0.09178273 0.99504346 -0.03826857 
-0.029284937 0.9972574 -0.06797226 
0.04569876 0.9967321 -0.06660953 
0.097565226 0.9948518 -0.02740113 
0.098699324 0.995059 0.010768525 
0.081081726 0.9964463 0.022813778 
0.061784115 0.9975678 0.03227139 
0.032223087 0.998966 0.032075677 
0.022505676 0.99973583 0.004680521 
0.0475779 0.99870497 -0.018019922 
0.06610721 0.9976995 -0.015025049 
0.05212021 0.9986224 -0.006071286 
0.033556376 0.9994246 0.0049547716 
0.032342628 0.9992217 0.022582253 
0.030640261 0.99923444 0.024326136 
0.015092067 0.99984807 0.008728204 
-0.0076815113 0.9999663 0.0028892 
-0.02580946 0.9995963 0.01188455 
-0.03770099 0.9989994 0.024058964 
-0.043076396 0.9986987 0.02730121 
-0.032239947 0.9992664 0.020674568 
-0.010635569 0.99983263 0.0148923155 
0.0009999728 0.9998983 0.014229091 
0.0016397581 0.9996695 0.025658397 
0.005023913 0.9989295 0.045985594 
0.015656935 0.9979854 0.06148143 
0.032055136 0.99748415 0.063229755 
0.04604956 0.9972515 0.058041584 
-0.8264723 -0.56251705 0.02276337 
-0.90597075 -0.34769166 0.24151087 
-0.5109637 0.7898371 0.33922508 
-0.19922364 0.96345377 0.17907271 
-0.120834075 0.99134576 0.051310986 
-0.059777495 0.99696636 -0.04984704 
0.029743517 0.9965379 -0.07763805 
0.08941069 0.9954634 -0.032532457 
0.08779514 0.9960583 0.0126434835 
0.075464614 0.99706644 0.012798127 
0.08267642 0.99653846 0.008700669 
0.08180872 0.9964587 0.019430604 
0.07208246 0.9973114 0.013201091 
0.0723214 0.9973703 -0.004700101 
0.06609798 0.99779755 -0.0055841403 
0.040168922 0.9991499 0.009266645 
0.020367475 0.9994023 0.02793503 
0.018053219 0.9992508 0.034235436 
0.011169189 0.99983937 0.014025836 
-0.0069805686 0.99994314 -0.008064366 
-0.02352443 0.99972045 -0.0024114344 
-0.030193463 0.99933 0.020685768 
-0.03915788 0.9984809 0.038763985 
-0.050853558 0.99792325 0.039536484 
-0.041928597 0.99864614 0.030787095 
-0.016674343 0.9994462 0.028796045 
-0.0032352495 0.99941117 0.03416044 
0.0056992006 0.99899834 0.044383667 
0.030005079 0.99816495 0.05259731 
0.06094929 0.9966062 0.05532951 
0.083998956 0.9949754 0.054480348 
0.095625095 0.99400866 0.052940544 
-0.5144181 -0.8361131 0.19049661 
-0.6292114 -0.6165157 0.47328794 
-0.30485716 0.7380552 0.6019441 
-0.08868884 0.9465138 0.31023544 
-0.08786136 0.98708594 0.13394663 
-0.07378663 0.99718964 -0.012975136 
0.0014687077 0.9971946 -0.07483969 
0.066333525 0.9968371 -0.0437687 
0.08324655 0.99650824 0.006438146 
0.085323334 0.9962039 0.017256552 
0.10335301 0.9945309 0.015049469 
0.11417389 0.99299175 0.03052532 
0.09879308 0.994535 0.033765662 
0.07230768 0.9972963 0.013106511 
0.042935297 0.99907786 -0.00016592347 
0.015041379 0.9998453 0.009126381 
0.0048844847 0.999681 0.024779098 
0.006597869 0.9998071 0.018501202 
-0.00356126 0.99992126 -0.012034843 
-0.023906263 0.99932283 -0.027970877 
-0.034955695 0.9993655 -0.006845484 
-0.031955324 0.99910784 0.027611364 
-0.036430094 0.99820846 0.047463983 
-0.049390275 0.9977308 0.045760702 
-0.044700835 0.99820256 0.039919745 
-0.025172345 0.9986572 0.04527932 
-0.010604454 0.9985007 0.0537015 
0.01432143 0.9985181 0.052503653 
0.057038005 0.9976866 0.036988497 
0.09076434 0.9956426 0.021392155 
0.10202099 0.99464065 0.016788233 
0.10197326 0.9946232 0.018062532 
-0.46203086 -0.81941664 0.3392403 
-0.6158454 -0.47498235 0.62859076 
-0.2285363 0.7777165 0.5856008 
-0.044764448 0.9479235 0.31533676 
-0.08180751 0.98248625 0.16741656 
-0.10011155 0.99484247 0.016315375 
-0.039895255 0.9970383 -0.065749764 
0.030768251 0.99807376 -0.053872984 
0.06967965 0.9975603 -0.0042564683 
0.08141094 0.9964445 0.021695519 
0.095109105 0.9950969 0.027137475 
0.10469277 0.9935931 0.04256969 
0.08410737 0.9954314 0.04519073 
0.045263626 0.9988309 0.01697224 
0.016489664 0.9998397 -0.0069800904 
0.008800505 0.99996126 0.00022413062 
0.016670229 0.9997364 0.015792226 
0.018386588 0.9998243 0.0036476883 
-0.0030168253 0.99959326 -0.028360514 
-0.032209005 0.99880433 -0.036775947 
-0.04194653 0.9990797 -0.008963535 
-0.03269494 0.9991223 0.02618688 
-0.033339236 0.9984419 0.04474867 
-0.047434915 0.9978306 0.045652337 
-0.051021848 0.9975938 0.046941917 
-0.039922003 0.99756455 0.057194427 
-0.020750517 0.99786395 0.0619441 
0.015786918 0.9989282 0.0435113 
0.055985466 0.9983902 0.00909744 
0.07087755 0.9974348 -0.010014556 
0.06309008 0.99799436 -0.005200153 
0.056074403 0.9984167 0.004442262 
-0.6033036 -0.50725263 0.615402 
-0.66162896 0.09109326 0.7442776 
-0.26072198 0.8394665 0.476781 
-0.09284542 0.9547987 0.28238153 
-0.12903336 0.9772029 0.16859724 
-0.14857042 0.9886239 0.02344399 
-0.085996665 0.99387974 -0.069337994 
-0.0019454032 0.9973405 -0.072857834 
0.056731332 0.99808604 -0.024614448 
0.07103128 0.9973069 0.018264256 
0.068045236 0.997059 0.035261154 
0.06446806 0.9969009 0.04508284 
0.041422695 0.9983922 0.038693547 
0.009056053 0.99993104 0.007473428 
0.00096280774 0.9999202 -0.012599894 
0.019414393 0.9998069 0.0030372615 
0.039916154 0.998952 0.02239888 
0.038643345 0.999218 0.008378281 
0.009575273 0.99968356 -0.023263039 
-0.023732774 0.9992522 -0.030525021 
-0.033829637 0.9994065 -0.006497392 
-0.026767772 0.9993579 0.023821475 
-0.030169653 0.99867225 0.041756317 
-0.045528825 0.9979355 0.04530002 
-0.05319487 0.99745226 0.047533795 
-0.04796124 0.997365 0.05443193 
-0.030199135 0.9980501 0.05462592 
0.0040545003 0.9994291 0.03354255 
0.0359965 0.99933994 0.004900504 
0.04267082 0.9990889 0.0007392949 
0.038030904 0.99895877 0.025202632 
0.047011916 0.9979743 0.042863876 
-0.44949216 0.398907 0.7992685 
-0.4020863 0.6785438 0.6147397 
-0.23417598 0.909877 0.34246957 
-0.1535646 0.96636474 0.20629361 
-0.17812997 0.97756326 0.112427376 
-0.17313951 0.98484856 -0.009807146 
-0.09841318 0.9913486 -0.08684988 
-0.008047395 0.9961833 -0.08691521 
0.054060005 0.99792325 -0.035027456 
0.059419964 0.9980486 0.019191813 
0.035979223 0.9986569 0.03728056 
0.019842556 0.99925834 0.033001054 
-0.0020452116 0.9998177 0.018984787 
-0.023678998 0.9997055 -0.005320192 
-0.013759732 0.9998356 -0.011813896 
0.020232107 0.99966973 0.01584708 
0.04835022 0.99801147 0.040440544 
0.052130345 0.998269 0.027231922 
0.028325241 0.99958944 -0.0043302085 
-0.0014056201 0.9998952 -0.0144140115 
-0.012785807 0.9999153 0.0024619354 
-0.013445328 0.999598 0.024962416 
-0.0249028 0.99898654 0.037493523 
-0.042502087 0.99840957 0.037041634 
-0.051793646 0.99808073 0.03394707 
-0.05566341 0.99769 0.038938373 
-0.04845918 0.9976132 0.049190495 
-0.012134928 0.9987025 0.04945659 
0.038561594 0.9985025 0.038803767 
0.06531274 0.99677557 0.046615142 
0.095653854 0.9915646 0.087465115 
0.15174717 0.98380595 0.09538731 
-0.31968313 0.78897923 0.5247044 
-0.29280454 0.8778357 0.37903845 
-0.21598448 0.9556453 0.20023216 
-0.16401042 0.9798469 0.11402091 
-0.17437705 0.9832697 0.05266379 
-0.15778376 0.9868388 -0.035403114 
-0.08448207 0.99240035 -0.089466855 
-0.0037373523 0.99674785 -0.080498286 
0.04549161 0.998637 -0.02558669 
0.036626525 0.9988975 0.029367859 
0.0021217254 0.9993359 0.036376223 
-0.01488324 0.9997445 0.017015047 
-0.03132508 0.9995064 0.0023782153 
-0.045251112 0.99892986 -0.009566868 
-0.027670117 0.99961436 -0.0023837027 
0.011555889 0.9994359 0.03153412 
0.046713483 0.99743277 0.05427456 
0.06056138 0.9974704 0.0372184 
0.044899967 0.99898446 0.0037568926 
0.019279532 0.99978966 -0.007001147 
0.006832305 0.99994797 0.0075842715 
-0.0017741668 0.9997066 0.024158662 
-0.02107007 0.99933785 0.02966517 
-0.038424533 0.99895585 0.024715161 
-0.048668347 0.998604 0.020528575 
-0.06605986 0.9973027 0.03199218 
-0.07094836 0.99549323 0.06292524 
-0.016439866 0.99549395 0.093389034 
0.07776281 0.9922528 0.09688861 
0.14049076 0.98327625 0.11588928 
0.24210674 0.9534595 0.17972013 
0.3946972 0.9071802 0.14573377 
-0.26702717 0.93436784 0.23590955 
-0.23400642 0.9581059 0.16514845 
-0.17113459 0.98167163 0.08386795 
-0.13638443 0.9893187 0.05145792 
-0.14487913 0.98934835 0.014142682 
-0.12323412 0.99115497 -0.049246393 
-0.059757546 0.9949819 -0.08025057 
-0.0042806165 0.9981882 -0.060017366 
0.01960687 0.99977034 -0.00864611 
0.0010929437 0.9994548 0.033001743 
-0.02518481 0.9993818 0.024535872 
-0.028151797 0.99960065 0.0024676726 
-0.037828255 0.99928415 0.0005488969 
-0.050623808 0.9987115 0.003539357 
-0.033079453 0.99929386 0.017825041 
0.007846823 0.99886054 0.04707432 
0.04745349 0.99715924 0.058496322 
0.06272331 0.9975019 0.03249168 
0.045880396 0.9989422 -0.003083973 
0.022610186 0.9997031 -0.009091156 
0.014234743 0.9998473 0.0101437215 
0.006424556 0.99971163 0.023140194 
-0.01194366 0.999741 0.019376265 
-0.026538538 0.999607 0.009034016 
-0.042342506 0.9990716 0.007942767 
-0.07824859 0.9964082 0.03236977 
-0.097798586 0.9909323 0.09213372 
-0.027492473 0.98633003 0.16247274 
0.101257026 0.97601014 0.19274682 
0.1825562 0.9478215 0.2613577 
0.36169964 0.8253338 0.43358693 
0.68688077 0.6358385 0.35200024 
-0.15536009 0.9860909 0.05905991 
-0.13193293 0.9905667 0.037031967 
-0.09297166 0.99552834 0.01672484 
-0.07660536 0.99701905 0.009199659 
-0.07746554 0.9968628 -0.016236821 
-0.055188883 0.9969474 -0.055228047 
-0.018852895 0.9977619 -0.06415515 
-0.0029866192 0.99912494 -0.041719213 
-0.003556798 0.9999753 -0.0060734716 
-0.020315934 0.9996533 0.016750453 
-0.02805872 0.9996 0.0035409054 
-0.017969627 0.9998366 -0.0019690692 
-0.027840512 0.9994669 0.017055606 
-0.043900404 0.99857795 0.030247906 
-0.028492572 0.9986544 0.043330804 
0.011183035 0.9980531 0.06135975 
0.04688845 0.9971934 0.058368336 
0.052900814 0.9982935 0.024730034 
0.031706255 0.9994674 -0.007728874 
0.013819291 0.99989426 -0.0045378217 
0.012159553 0.99975246 0.018634504 
0.009496046 0.99965197 0.024612525 
-0.0011628151 0.9999572 0.009185166 
-0.008723086 0.99993306 -0.007603667 
-0.027916774 0.9995848 -0.007133219 
-0.07971091 0.9964276 0.0278968 
-0.11995348 0.985864 0.11697591 
-0.06189438 0.9693107 0.23792006 
0.051379748 0.94303274 0.32870856 
0.050992154 0.8455385 0.5314739 
0.04362429 0.21615067 0.97538495 
0.28921026 -0.48259687 0.82671505 
-0.044954825 0.9989371 -0.010194096 
-0.031860877 0.9994391 -0.010313131 
-0.011682473 0.9999223 -0.004374077 
2.2625958e-05 0.9999959 -0.002869717 
0.0063755834 0.99985605 -0.015725506 
0.016036898 0.99916255 -0.037642594 
0.018296251 0.99895126 -0.041974396 
0.0036882227 0.9993865 -0.03483089 
-0.006041464 0.9997495 -0.02155351 
-0.015709842 0.9998015 -0.0122558195 
-0.013063528 0.9997559 -0.01781979 
-0.0025878015 0.99999666 0.00011060133 
-0.017699806 0.9992321 0.034955435 
-0.035819482 0.99809736 0.050185163 
-0.023176441 0.9979703 0.059314664 
0.009955062 0.99754846 0.069267794 
0.036581337 0.9976714 0.057563517 
0.037253346 0.9990571 0.02229499 
0.020876577 0.9997757 -0.0035873882 
0.00908062 0.9999397 0.006177493 
0.00844393 0.99951595 0.029945329 
0.011492676 0.99941444 0.032229993 
0.0141789215 0.99984646 0.010296431 
0.015705204 0.9997554 -0.015576822 
-0.0049764942 0.99967134 -0.025151249 
-0.06533157 0.9978599 0.0027282245 
-0.12953064 0.9870227 0.09491165 
-0.12674087 0.9628666 0.23837927 
-0.106760964 0.92106444 0.37448972 
-0.28855023 0.73917204 0.60857505 
-0.55557764 -0.30964524 0.7716563 
-0.30841166 -0.8108316 0.49742788 
0.013278592 0.9993392 -0.033836883 
0.020203428 0.9994857 -0.024904348 
0.03067249 0.99948144 -0.009799114 
0.04328924 0.9990579 -0.0030601462 
0.05101185 0.9986607 -0.008641059 
0.053418953 0.9982142 -0.02673704 
0.043852482 0.9984152 -0.03527228 
0.027187163 0.99879575 -0.040842608 
0.021475093 0.9991167 -0.036118805 
0.010321319 0.9994695 -0.030890565 
0.008587225 0.9994794 -0.031099916 
0.010080358 0.9999484 -0.0012635317 
-0.011328439 0.9992914 0.03589446 
-0.028983515 0.99836075 0.0493544 
-0.020536322 0.9979502 0.060611747 
0.00047980985 0.997598 0.06926807 
0.017387964 0.99849 0.05211202 
0.021832101 0.9996189 0.016898224 
0.017921194 0.9998355 -0.0028285722 
0.01159512 0.9998891 0.009347953 
0.010791565 0.99935186 0.034343746 
0.02092055 0.99879766 0.044335265 
0.035728436 0.9989792 0.027641712 
0.041260537 0.99912655 -0.0066080126 
0.016905282 0.99924666 -0.03493536 
-0.047343995 0.99844116 -0.0295596 
-0.13202107 0.99047834 0.039029762 
-0.192582 0.9661618 0.17159146 
-0.26683104 0.91030294 0.31646454 
-0.548349 0.6766849 0.49133593 
-0.80144906 -0.33286932 0.49686757 
-0.59065 -0.7290192 0.34592426 
0.02766937 0.99860245 -0.045028307 
0.030875228 0.99894804 -0.033906206 
0.03637713 0.9991564 -0.019057713 
0.048211202 0.9987699 -0.0115929255 
0.05651856 0.9982601 -0.01681118 
0.06381619 0.9974986 -0.030401161 
0.060650397 0.99760884 -0.03313912 
0.05528489 0.9978953 -0.033892978 
0.050291024 0.9983938 -0.026090303 
0.031732026 0.99903786 -0.030273322 
0.026060041 0.9989544 -0.037563387 
0.022119934 0.9996978 -0.0107245855 
0.0014669305 0.9998136 0.01925265 
-0.012906328 0.9993441 0.033834286 
-0.015194377 0.9985169 0.052279796 
-0.013762863 0.99815965 0.059058975 
-0.0069226515 0.99937594 0.03464005 
0.00543108 0.9999851 -0.0006203251 
0.016873565 0.99972755 -0.01612823 
0.020642253 0.99977624 -0.0046390533 
0.026783274 0.99931496 0.025540715 
0.04486119 0.997504 0.054527767 
0.06375202 0.9965618 0.052917227 
0.06424908 0.9978232 0.01486856 
0.03313766 0.99897575 -0.030813642 
-0.029380674 0.9983113 -0.050113108 
-0.11362963 0.9933897 -0.016289178 
-0.19622074 0.9775344 0.07696729 
-0.30117208 0.93592113 0.18261208 
-0.57459414 0.7734135 0.26771834 
-0.9465997 0.112718515 0.30206528 
-0.8967865 -0.35613957 0.26256147 
0.019285977 0.9987291 -0.04656437 
0.019958345 0.9991686 -0.0355499 
0.021947728 0.99950004 -0.022761647 
0.029214198 0.999443 -0.016134435 
0.03585577 0.99909693 -0.022795677 
0.047578324 0.9984299 -0.029563742 
0.052187994 0.9983548 -0.023752242 
0.05784053 0.99820745 -0.015371674 
0.053478375 0.99855036 -0.0061177625 
0.036358424 0.9990992 -0.021884982 
0.03684194 0.9986776 -0.035857134 
0.03692104 0.9991998 -0.015385124 
0.024067177 0.9996927 0.005939809 
0.010641477 0.999716 0.021327427 
-0.007718815 0.99913514 0.0408572 
-0.02548407 0.9989351 0.038459744 
-0.025148911 0.99967307 0.004620888 
-0.0036874497 0.99954396 -0.029973755 
0.023951221 0.9988606 -0.04127744 
0.042633373 0.99868023 -0.02864268 
0.057558898 0.9982851 0.010678439 
0.0748811 0.99537563 0.06016901 
0.08623929 0.99351615 0.07408477 
0.07768778 0.9963442 0.03553599 
0.042055696 0.9988828 -0.02155223 
-0.013983435 0.99809325 -0.060119167 
-0.086441115 0.9944926 -0.05926575 
-0.16745506 0.9858548 -0.0070146085 
-0.2600116 0.9639664 0.05623899 
-0.44975907 0.89151144 0.054075785 
-0.7973154 0.6034591 -0.0111875115 
-0.98046076 0.19341101 -0.03590347 
0.020465294 0.99857295 -0.049329218 
0.018654453 0.999177 -0.03602138 
0.01607589 0.9996973 -0.018625014 
0.013855813 0.9998889 -0.005495532 
0.012579138 0.99989337 -0.0074143675 
0.017529437 0.99982107 -0.007120204 
0.020238925 0.9997938 -0.0016903661 
0.029263508 0.9995554 0.0057171783 
0.025664136 0.99965394 0.005791289 
0.023280222 0.9995052 -0.021150324 
0.041025627 0.99868757 -0.030659283 
0.049307827 0.9987252 -0.010808436 
0.044931207 0.9989894 0.0011635715 
0.030840406 0.9994519 0.012034397 
-0.00054162764 0.9996875 0.024993645 
-0.02813203 0.99952704 0.012421171 
-0.025549889 0.999384 -0.024063528 
0.006317357 0.9986717 -0.051137146 
0.045072038 0.99746454 -0.055072747 
0.07147749 0.99662656 -0.04033099 
0.0848033 0.9963972 0.0010473322 
0.09180133 0.9943273 0.053720355 
0.093736194 0.993061 0.07101745 
0.080533296 0.9961189 0.035517868 
0.045717724 0.99875456 -0.019984122 
0.0024043105 0.9980568 -0.062264204 
-0.044991296 0.9957298 -0.080610625 
-0.10732003 0.9921932 -0.063523255 
-0.17801405 0.98358154 -0.02963938 
-0.2634391 0.96351147 -0.047388192 
-0.4061078 0.90445733 -0.13051242 
-0.5405604 0.8169059 -0.20114489 
0.019842174 0.9996556 -0.01718061 
0.01322937 0.99991095 -0.0017816535 
0.0019111003 0.99976605 0.021545997 
-0.015218678 0.99908817 0.039891593 
-0.030828942 0.9987396 0.039609164 
-0.042739697 0.998558 0.032484073 
-0.0448222 0.9988612 0.016352106 
-0.032097008 0.99948233 0.002230619 
-0.01893891 0.99959743 -0.021127315 
0.013402627 0.99889386 -0.04507296 
0.046422593 0.9984324 -0.031267874 
0.057261586 0.9983087 -0.010037015 
0.060367953 0.99815303 -0.0068092467 
0.043418624 0.9990569 0.00026444427 
0.0035721618 0.99997616 0.0059222863 
-0.022625532 0.9996863 -0.010736997 
-0.011670786 0.99920464 -0.03812977 
0.02508878 0.9984579 -0.049521953 
0.06317548 0.9970143 -0.044401165 
0.08555833 0.99583715 -0.031433813 
0.08856309 0.9960692 -0.0016639568 
0.08376696 0.9958356 0.03598223 
0.08189146 0.9954712 0.048279665 
0.0725326 0.9971874 0.018880252 
0.045317423 0.99857455 -0.02819902 
0.016443402 0.99801254 -0.06083267 
-0.0064136893 0.9973465 -0.07251727 
-0.045811728 0.9968932 -0.06407165 
-0.09876585 0.99405175 -0.045896973 
-0.13585202 0.98934746 -0.05230534 
-0.16825585 0.9813349 -0.09312323 
-0.20281675 0.9704038 -0.13107926 
-0.0502749 0.997621 0.047169216 
-0.058323573 0.99661326 0.057970606 
-0.07122981 0.9946503 0.07481355 
-0.089837834 0.9926608 0.08095431 
-0.10643199 0.992118 0.06613756 
-0.118136056 0.99240476 0.034302093 
-0.10627955 0.9943122 -0.0069229645 
-0.075429134 0.9963258 -0.040565055 
-0.031188928 0.99714345 -0.06879177 
0.01995357 0.9977034 -0.06472983 
0.042833228 0.99854094 -0.03288244 
0.052254118 0.99846005 -0.01862884 
0.060764406 0.99797654 -0.01872653 
0.03977936 0.99908763 -0.015545192 
0.0013893576 0.9998235 -0.018739127 
-0.014497742 0.9993967 -0.031564124 
0.0021238152 0.99920315 -0.039856177 
0.03425055 0.99886894 -0.032982666 
0.06342362 0.99778163 -0.020234255 
0.0778417 0.9969048 -0.011025841 
0.0720287 0.9974022 0.00086579757 
0.057770357 0.99821395 0.015215676 
0.05177048 0.9984716 0.019344853 
0.051008496 0.9986976 0.001140785 
0.042617265 0.99859655 -0.03144518 
0.030110069 0.9981554 -0.052718252 
0.0162517 0.99858093 -0.050716337 
-0.015017348 0.99936616 -0.032276914 
-0.053668723 0.99845105 -0.014671456 
-0.068752736 0.9975245 -0.014762141 
-0.06537618 0.9973611 -0.031572856 
-0.06594537 0.9966127 -0.04913656 