# OOMMF OVF 2.0
# Segment count: 1
# Begin: Segment
# Begin: Header
# Title: J
# meshtype: rectangular
# meshunit: m
# xmin: 0
# ymin: 0
# zmin: 0
# xmax: 32
# ymax: 32
# zmax: 1
# valuedim: 3
# valuelabels: J_x J_y J_z
# valueunits: A/m2 A/m2 A/m2
# Desc: Total simulation time:  0  s
# xbase: 0.5
# ybase: 0.5
# zbase: 0.5
# xnodes: 32
# ynodes: 32
# znodes: 1
# xstepsize: 1
# ystepsize: 1
# zstepsize: 1
# End: Header
# Begin: Data Text
0 0 42823775130.333305
0 0 50294387807.890915
0 0 107751305736.60413
0 0 172381941263.4406
0 0 193468666470.61203
0 0 195298189730.69202
0 0 195222195376.7593
0 0 195306047667.00525
0 0 195117891648.38348
0 0 194910090231.24728
0 0 195034275171.93152
0 0 195267490068.28238
0 0 193698812595.2082
0 0 191463511427.92474
0 0 190655781989.7377
0 0 190864900109.4457
0 0 191411256993.4796
0 0 192906150081.69284
0 0 194101471682.5202
0 0 194055357784.17325
0 0 193529956342.53107
0 0 193875063883.57568
0 0 194897123417.0179
0 0 195281741819.50198
0 0 195230439151.21194
0 0 194570835719.2018
0 0 193534269032.94272
0 0 193607546776.46585
0 0 194647395992.4348
0 0 195206651991.4393
0 0 195304956745.81378
0 0 195307115623.89725
0 0 57545702174.11319
0 0 76004241928.88744
0 0 132342096301.96976
0 0 178781953451.10397
0 0 193652181617.9773
0 0 195309324286.3398
0 0 195290995225.3926
0 0 195308127342.3475
0 0 195258885478.19907
0 0 195223390476.33267
0 0 195280911286.6714
0 0 195138676474.39062
0 0 193899896622.3982
0 0 192791242293.93097
0 0 192804278394.97693
0 0 193201111203.19556
0 0 193527046371.33804
0 0 194201052613.1856
0 0 194691590329.4142
0 0 194507552404.18414
0 0 193964194641.55698
0 0 194030019420.40097
0 0 194769478143.8553
0 0 195180703266.5134
0 0 195148532946.6295
0 0 194670196096.9732
0 0 194020229886.41498
0 0 194158084728.62518
0 0 194918453422.57693
0 0 195284256543.07098
0 0 195306923930.8629
0 0 195278480927.77005
0 0 132499558845.50821
0 0 141837029711.1326
0 0 167148565629.3247
0 0 186681016538.5732
0 0 193861201950.4367
0 0 195175050577.06613
0 0 195287132203.21558
0 0 195293046936.5543
0 0 195312257375.4427
0 0 195275651348.24033
0 0 195179565050.44662
0 0 194726768375.66672
0 0 193877482880.01147
0 0 193537589880.35617
0 0 193927377994.9412
0 0 194452158928.0743
0 0 194810365872.00623
0 0 195081282768.509
0 0 195181169377.20834
0 0 195028143843.06784
0 0 194637588569.497
0 0 194522500879.02768
0 0 194850902086.31873
0 0 195121921699.662
0 0 195146777397.3649
0 0 194937510212.04053
0 0 194593608237.8958
0 0 194623966922.55902
0 0 195061295903.4185
0 0 195298779260.6098
0 0 195298669775.15656
0 0 195265330495.56766
0 0 185482768798.92267
0 0 184635801720.7281
0 0 187962501585.3038
0 0 191967954349.9622
0 0 194073885829.2687
0 0 194806294185.70117
0 0 195006869249.08594
0 0 195146421788.22485
0 0 195312496424.48373
0 0 195103108859.92093
0 0 194668719750.59573
0 0 194012680502.52917
0 0 193387427652.80292
0 0 193323883908.65726
0 0 193991181416.2207
0 0 194808602765.89023
0 0 195203378826.06168
0 0 195297871011.19138
0 0 195308413474.78207
0 0 195270733524.22043
0 0 195117481547.08505
0 0 195027878441.45016
0 0 195109039597.7559
0 0 195223242567.93344
0 0 195276591149.61105
0 0 195263960338.95398
0 0 195167773448.39532
0 0 195108818961.45685
0 0 195210064468.67307
0 0 195299439173.35562
0 0 195311982031.92548
0 0 195306868487.1356
0 0 195268070195.7936
0 0 195197440125.24985
0 0 194774013492.80728
0 0 194579217901.1043
0 0 194544225838.31384
0 0 194688905036.02255
0 0 194888194807.70847
0 0 195062305853.75266
0 0 195306112815.35464
0 0 195056951526.13013
0 0 194228926760.40387
0 0 193261308970.70493
0 0 192747815595.0336
0 0 192932563758.24512
0 0 193880699904.62433
0 0 194861887593.2695
0 0 195250540738.7079
0 0 195311466685.11288
0 0 195305288459.271
0 0 195310619471.98526
0 0 195292568451.46475
0 0 195248678078.90787
0 0 195247802667.90506
0 0 195294729960.10696
0 0 195297564443.25937
0 0 195212372441.4245
0 0 195252628034.63788
0 0 195307687299.53052
0 0 195312401549.1639
0 0 195312460825.93808
0 0 195312435631.01932
0 0 195311533613.63297
0 0 191156573836.50317
0 0 193456462333.64062
0 0 194934732479.45105
0 0 195309376451.28027
0 0 195195195213.9296
0 0 195135749381.00208
0 0 195238512182.52316
0 0 195278744475.5848
0 0 195310140453.083
0 0 195016543960.64664
0 0 193993976028.77295
0 0 192839845459.19867
0 0 192590419651.88525
0 0 193200405007.37512
0 0 194124475800.25665
0 0 194835270603.58224
0 0 195186470714.18634
0 0 195306345296.26788
0 0 195281155180.10522
0 0 195251759778.4864
0 0 195298707305.4106
0 0 195312255331.932
0 0 195311171671.04218
0 0 195309848067.2055
0 0 195160024337.46048
0 0 194818089647.83572
0 0 194866413674.65436
0 0 195125920018.23502
0 0 195257734914.31818
0 0 195298711547.00574
0 0 195311531318.47095
0 0 195310824216.78845
0 0 188223886195.13126
0 0 191226542789.74948
0 0 193554164892.71088
0 0 194728363783.73932
0 0 195239888547.5928
0 0 195297888942.24774
0 0 195247271818.22546
0 0 195253809644.24838
0 0 195271801503.59106
0 0 195111014475.5669
0 0 194383595093.1597
0 0 193422939376.223
0 0 193367489160.32898
0 0 193976648025.19507
0 0 194397896424.19968
0 0 194645989560.79874
0 0 195019613300.8836
0 0 195291601859.11484
0 0 195262746337.20358
0 0 195182929008.3317
0 0 195228551381.60455
0 0 195268335964.75555
0 0 195302002467.91922
0 0 195298985444.88086
0 0 195118565056.7771
0 0 194759489870.3078
0 0 194872888497.69516
0 0 195160207631.78455
0 0 195276547299.22476
0 0 195305753118.66107
0 0 195312499216.28574
0 0 195305698162.92883
0 0 172494578485.487
0 0 184483656420.58582
0 0 191176528325.4187
0 0 193661466368.36728
0 0 194812865746.36185
0 0 195064025252.71713
0 0 194965002089.2322
0 0 195053380363.57388
0 0 195236343092.48096
0 0 195224835865.06647
0 0 194861457009.867
0 0 194259732938.46973
0 0 194211910040.70776
0 0 194471465480.80145
0 0 194379351743.4245
0 0 194275810399.2415
0 0 194808627293.56604
0 0 195269334734.77966
0 0 195280545142.78983
0 0 195220542328.86346
0 0 195240099691.72772
0 0 195265263522.12994
0 0 195306088626.2913
0 0 195311045326.6814
0 0 195217789005.9767
0 0 195021448593.19864
0 0 195144017569.50378
0 0 195285789850.75195
0 0 195311738038.399
0 0 195310266181.26498
0 0 195292541836.0808
0 0 195249853588.45416
0 0 44809464728.543144
0 0 119176045387.31282
0 0 181514356538.55206
0 0 191587123534.97083
0 0 194174083800.12677
0 0 194780692837.68832
0 0 194788575957.38525
0 0 194925626880.82034
0 0 195208048766.4509
0 0 195261091065.86182
0 0 195106820364.52994
0 0 194835063141.66003
0 0 194705476560.51807
0 0 194535758053.04218
0 0 193942340734.97122
0 0 193706298068.09973
0 0 194620507817.29102
0 0 195252641071.75613
0 0 195300237548.0753
0 0 195275359042.53528
0 0 195276366149.13205
0 0 195288275665.07635
0 0 195312305896.89542
0 0 195299909445.92166
0 0 195306942557.3799
0 0 195259777995.4435
0 0 195302249705.60443
0 0 195304446541.2159
0 0 195280479385.70782
0 0 195244739735.1686
0 0 195155773369.65845
0 0 195020643418.0781
0 0 41059528466.72842
0 0 53329037221.081635
0 0 158611858214.79434
0 0 188305326390.7858
0 0 193686113418.69037
0 0 194726965064.61688
0 0 194815431800.88318
0 0 194919523460.65973
0 0 195222303874.24557
0 0 195300693645.89386
0 0 195278435803.37164
0 0 195190443333.28592
0 0 194966206537.03763
0 0 194391136771.4266
0 0 193277959046.29575
0 0 193049048254.5661
0 0 194395798933.0914
0 0 195218217551.8348
0 0 195309688543.08875
0 0 195286570141.8787
0 0 195267592641.50476
0 0 195285845229.01074
0 0 195304905985.5101
0 0 195213018271.09937
0 0 195237032286.52228
0 0 195280565562.12857
0 0 195234638095.3653
0 0 195106295558.26138
0 0 195027051423.8501
0 0 194977156814.518
0 0 194879055296.20786
0 0 194741420254.98932
0 0 43954467460.8317
0 0 60633303333.45417
0 0 154383970017.17517
0 0 188012937135.43655
0 0 194098305616.81467
0 0 195131935099.44327
0 0 195202381794.16553
0 0 195190506121.9107
0 0 195302591026.86526
0 0 195297152286.73294
0 0 195297623376.00812
0 0 195305783618.77554
0 0 195060793103.87906
0 0 194199410185.3113
0 0 192842121575.09488
0 0 192810227042.51843
0 0 194375865343.7321
0 0 195226715149.19492
0 0 195302238484.8148
0 0 195242257544.79596
0 0 195214523416.89346
0 0 195276267225.0762
0 0 195287109661.55978
0 0 195046884459.12936
0 0 194981215708.2105
0 0 195085662309.23904
0 0 195007990512.4835
0 0 194775708526.75726
0 0 194726410569.06665
0 0 194875288831.43335
0 0 195006277703.41705
0 0 195038828912.72644
0 0 69759324928.53989
0 0 113020371352.97227
0 0 173464107247.72473
0 0 190880846789.89716
0 0 194623679394.379
0 0 195298056152.51154
0 0 195311040732.35565
0 0 195312236076.3637
0 0 195293269136.3994
0 0 195207020698.85278
0 0 195226650952.47327
0 0 195312416858.3303
0 0 195023349601.04388
0 0 194038059154.20856
0 0 192891873251.28815
0 0 193213097571.86624
0 0 194642803237.10614
0 0 195286950431.84256
0 0 195240809882.879
0 0 195122331109.62723
0 0 195177668391.4945
0 0 195297830898.56686
0 0 195237962928.07166
0 0 194908005796.41724
0 0 194889752342.04358
0 0 195124213618.34543
0 0 195138306998.34583
0 0 195016729147.13077
0 0 195065440188.5171
0 0 195249774810.2593
0 0 195312135287.35013
0 0 195288839871.52502
0 0 156587010492.77127
0 0 175762207074.2706
0 0 189250599459.83878
0 0 193339371965.26105
0 0 194810728065.77188
0 0 195295654545.81918
0 0 195297229760.80685
0 0 195279762031.03705
0 0 195200571002.76584
0 0 195113511580.4073
0 0 195234523054.22717
0 0 195279608080.34827
0 0 194687288159.14545
0 0 193542195670.58414
0 0 192898953414.3441
0 0 193701202867.91638
0 0 194944292774.68472
0 0 195306735281.78622
0 0 195010722651.3688
0 0 194918344036.9282
0 0 195209003479.79184
0 0 195308102137.37253
0 0 195135951333.3293
0 0 194879978645.02194
0 0 195072198214.55908
0 0 195306693490.88162
0 0 195307356786.38638
0 0 195312478276.94257
0 0 195307357001.71924
0 0 195195323550.3736
0 0 194893324951.17413
0 0 194650795462.18823
0 0 191886842335.17026
0 0 193259418452.68112
0 0 194116381456.92453
0 0 194408309318.26636
0 0 194773902292.12048
0 0 195207309051.48904
0 0 195311032807.22885
0 0 195252203136.59506
0 0 195168366089.1197
0 0 195194861647.5624
0 0 195311980791.0232
0 0 195045128694.39526
0 0 194117926112.36322
0 0 193145331611.94086
0 0 193167766335.84933
0 0 194235447492.44315
0 0 195196808634.34958
0 0 195158873166.60516
0 0 194578813353.74033
0 0 194755244180.00647
0 0 195265599922.77826
0 0 195270425406.40915
0 0 195123579661.4792
0 0 195028818748.42578
0 0 195256191823.89874
0 0 195246210977.19135
0 0 195119995350.2087
0 0 195172200355.66064
0 0 195156961980.9623
0 0 194988341205.55148
0 0 194687747893.05115
0 0 194450816395.9095
0 0 195307235475.48022
0 0 195307217753.14636
0 0 195205627542.72415
0 0 195030598208.28827
0 0 195015507574.03757
0 0 195236011432.86496
0 0 195305751940.07498
0 0 195232921609.04135
0 0 195217183958.29495
0 0 195296667352.62967
0 0 195247569303.56802
0 0 194792296177.5971
0 0 194008557884.6592
0 0 193593447780.38492
0 0 194014024344.9838
0 0 194864229579.98618
0 0 195312491844.78943
0 0 194863053063.36786
0 0 194314479401.08563
0 0 194807842411.71646
0 0 195290296131.70773
0 0 195290631390.8805
0 0 195239504060.95078
0 0 195199445156.53992
0 0 195310770255.00427
0 0 195173183587.59564
0 0 195129352385.82083
0 0 195238675575.56076
0 0 195272420412.01874
0 0 195261025007.45502
0 0 195208070518.58292
0 0 195135702438.46906
0 0 194791929695.40933
0 0 195126717969.66412
0 0 195310814983.2348
0 0 195272437747.3659
0 0 195255398189.28
0 0 195312234083.21283
0 0 195235054478.62415
0 0 195177876450.59186
0 0 195241494949.99033
0 0 195312358399.41644
0 0 195160234093.5305
0 0 194786631875.69736
0 0 194407041151.1494
0 0 194428966533.32162
0 0 194811356453.2971
0 0 195219600718.099
0 0 195253868311.90866
0 0 194754034220.3156
0 0 194512158200.89386
0 0 194991790829.7047
0 0 195282013259.56723
0 0 195310932921.11444
0 0 195307216398.32883
0 0 195290727403.5647
0 0 195291847006.21884
0 0 195118449529.2493
0 0 195212487653.24524
0 0 195311366297.8368
0 0 195288948508.3554
0 0 195221870088.65482
0 0 195170827029.65173
0 0 195181930635.0595
0 0 194987844843.57852
0 0 195227294864.377
0 0 195311882093.7376
0 0 195286528306.90732
0 0 195303044731.4866
0 0 195284966164.0515
0 0 195172028222.28506
0 0 195196882272.79187
0 0 195280752636.2129
0 0 195305691415.93863
0 0 195180820333.71466
0 0 195004342422.24078
0 0 194880509408.46307
0 0 194955885404.8448
0 0 195130227673.75455
0 0 195292086839.825
0 0 195229608321.40356
0 0 194884411861.27243
0 0 194812342609.9748
0 0 195097465031.79355
0 0 195243883990.67072
0 0 195274841163.11295
0 0 195310791568.58603
0 0 195311927290.38992
0 0 195175820829.9065
0 0 195013530631.46103
0 0 195254575634.6674
0 0 195286148047.72833
0 0 195115874150.69922
0 0 194788872380.42606
0 0 194419377492.98596
0 0 194302456032.10797
0 0 195312273587.23175
0 0 195272321062.19522
0 0 195209896005.307
0 0 195228607293.22873
0 0 195294506615.47452
0 0 195302603341.23526
0 0 195281726464.57724
0 0 195304648562.53784
0 0 195312356727.33704
0 0 195306720142.07724
0 0 195290078480.65115
0 0 195263195263.77353
0 0 195209040308.98645
0 0 195186157742.19217
0 0 195198275137.28403
0 0 195281683167.09503
0 0 195278664961.0512
0 0 195065137716.08154
0 0 195018872137.41998
0 0 195152262954.40463
0 0 195209694780.68024
0 0 195252238916.71677
0 0 195311375926.75275
0 0 195310248537.09515
0 0 195155279577.64603
0 0 195091403181.95712
0 0 195303487390.13757
0 0 195221731622.1226
0 0 194975408018.89084
0 0 194495013205.13693
0 0 193898868854.22885
0 0 193635105777.75925
0 0 195199425081.87674
0 0 195141216296.5161
0 0 195187973461.05777
0 0 195264165878.1886
0 0 195304588705.06403
0 0 195311734134.46432
0 0 195312436425.60944
0 0 195301512736.18427
0 0 195306751220.34662
0 0 195311412720.70053
0 0 195293522325.8388
0 0 195304659468.47137
0 0 195305174810.68845
0 0 195261645397.40216
0 0 195213653166.78528
0 0 195270375970.13422
0 0 195296033116.33566
0 0 195136064630.40414
0 0 195108390987.84723
0 0 195187324881.4884
0 0 195212860206.31442
0 0 195283081382.86777
0 0 195295369317.33435
0 0 195295521516.39655
0 0 195269292703.76297
0 0 195236428461.55923
0 0 195312497908.16055
0 0 195256588430.56696
0 0 195126184169.47375
0 0 194765811058.208
0 0 194250011756.02518
0 0 193909257978.25302
0 0 195288199178.99118
0 0 195280883717.3022
0 0 195309280855.0716
0 0 195308420601.9386
0 0 195302041664.5913
0 0 195297829511.24454
0 0 195311746172.40305
0 0 195302639761.83994
0 0 195310754080.12338
0 0 195288793557.1338
0 0 195226380053.2826
0 0 195274097833.30878
0 0 195312496405.4013
0 0 195298415608.34625
0 0 195281748935.40436
0 0 195311277737.6552
0 0 195234243168.10297
0 0 195044464675.38602
0 0 195067384576.18048
0 0 195179726274.55902
0 0 195241199319.77682
0 0 195312156497.23907
0 0 195133657902.5934
0 0 195138340672.45535
0 0 195309087731.9532
0 0 195304820669.08334
0 0 195312321326.26456
0 0 195312296724.43857
0 0 195302895681.15414
0 0 195203621729.40707
0 0 195002789125.52838
0 0 194776025499.89743
0 0 195308792056.07297
0 0 195311938975.4278
0 0 195300611301.3286
0 0 195277344313.1524
0 0 195276448836.7187
0 0 195266097506.01855
0 0 195285755500.9819
0 0 195306679659.3347
0 0 195286807602.91196
0 0 195194200300.0167
0 0 195163786768.58484
0 0 195274203376.65503
0 0 195312310199.6908
0 0 195309763248.4993
0 0 195310392007.89145
0 0 195295628948.172
0 0 195147757797.9683
0 0 194969559685.55777
0 0 195023868431.3678
0 0 195163938600.91266
0 0 195266603612.4426
0 0 195276743714.5092
0 0 194898190545.54468
0 0 194950350418.90274
0 0 195268974805.87613
0 0 195312352166.9298
0 0 195307419923.9187
0 0 195281777793.01004
0 0 195225403871.58115
0 0 195159760037.9776
0 0 195135134712.418
0 0 195247212585.85187
0 0 195307633889.31717
0 0 195292934887.3301
0 0 195303204677.41544
0 0 195311475562.4353
0 0 195312487951.56918
0 0 195294974489.30234
0 0 195254112562.12402
0 0 195223346058.93643
0 0 195128149787.39462
0 0 195011174374.47925
0 0 195101452273.34207
0 0 195270738118.50888
0 0 195310136754.00803
0 0 195312494879.82455
0 0 195312498967.11203
0 0 195295515748.9335
0 0 195214058306.8074
0 0 195097651743.99344
0 0 195092002124.79123
0 0 195180610003.30853
0 0 195277776283.58914
0 0 195271281969.40204
0 0 194974999098.85168
0 0 195061662755.29895
0 0 195274707085.03732
0 0 195303263313.64572
0 0 195307307353.4193
0 0 195279733027.41425
0 0 194699472782.19202
0 0 192659803617.18835
0 0 189893624344.4525
0 0 190020293751.74326
0 0 195034369190.26575
0 0 194950334558.73343
0 0 195000611235.4787
0 0 195098587839.91998
0 0 195192151352.36282
0 0 195305474655.0632
0 0 195266827210.36206
0 0 195133284300.87772
0 0 194969859896.17935
0 0 194893067399.25964
0 0 195056720927.6538
0 0 195232563079.54584
0 0 195283278254.1394
0 0 195304462628.91074
0 0 195311619497.3987
0 0 195310055825.4528
0 0 195302060426.33118
0 0 195264840828.81052
0 0 195230064342.52887
0 0 195251719954.26468
0 0 195293427870.6697
0 0 195301590851.91498
0 0 195218011991.33344
0 0 195268170041.93372
0 0 195305050879.12567
0 0 195262623204.70923
0 0 195216044478.54745
0 0 195296245258.25385
0 0 193614197488.24368
0 0 185741464155.70447
0 0 165755812172.96185
0 0 135286722813.32562
0 0 194471471474.8374
0 0 194369972683.6356
0 0 194522040350.73953
0 0 194800138523.0656
0 0 195075941390.63553
0 0 195299934606.83615
0 0 195230923798.38358
0 0 195023159311.32388
0 0 194873975182.59592
0 0 194887250128.52127
0 0 195095216816.13214
0 0 195247429427.71213
0 0 195290134462.90192
0 0 195308782583.966
0 0 195312497765.92197
0 0 195309514494.0548
0 0 195299465425.39987
0 0 195312190460.79425
0 0 195302392615.9809
0 0 195305532060.50436
0 0 195311983549.7133
0 0 195311577919.33295
0 0 195311930408.16846
0 0 195255330102.50845
0 0 195230168285.5556
0 0 195310449849.1308
0 0 195177405225.25684
0 0 195306716847.9706
0 0 194170024535.578
0 0 186011926979.89084
0 0 134230670265.15149
0 0 40351851272.48999
0 0 194654629131.04095
0 0 194614894400.56015
0 0 194815147002.68033
0 0 195108939201.74142
0 0 195290080645.66937
0 0 195262588488.8499
0 0 194982259237.64685
0 0 194737086647.80017
0 0 194679950198.4768
0 0 194842732369.9162
0 0 195150057228.62137
0 0 195300078660.66223
0 0 195310332552.63443
0 0 195299785156.30313
0 0 195289416633.35843
0 0 195228931008.5464
0 0 195154035405.1489
0 0 195254968055.48685
0 0 195309617543.31985
0 0 195308515493.587
0 0 195307137458.91898
0 0 195307548724.92178
0 0 195184904951.98108
0 0 194872237139.16483
0 0 194874699613.36862
0 0 195273591034.94382
0 0 195159127732.46167
0 0 195008317399.97623
0 0 195278180331.35345
0 0 195250851193.8127
0 0 195293472462.91412
0 0 39647660538.303276
0 0 195112190021.19846
0 0 195112631858.40347
0 0 195227285160.97263
0 0 195312416066.32608
0 0 195235368229.05884
0 0 195006820717.84137
0 0 194689889487.73413
0 0 194471504718.0426
0 0 194414767584.1485
0 0 194652881316.73895
0 0 195107497478.24026
0 0 195309589426.6854
0 0 195283933343.46
0 0 195256685566.67896
0 0 195201826008.3088
0 0 195006389738.66907
0 0 194910652092.88217
0 0 195155265240.30188
0 0 195288991651.14792
0 0 195299965776.12827
0 0 195309154820.253
0 0 195286206138.0648
0 0 195078509222.85577
0 0 194780071426.95602
0 0 194888317108.08835
0 0 195284636766.46188
0 0 195075348987.55515
0 0 194464551763.46548
0 0 193962966900.52325
0 0 191854927270.4159
0 0 175483852467.51483
0 0 94191979855.03258
0 0 195195659969.6272
0 0 195208178577.95767
0 0 195284411147.80283
0 0 195304041303.2243
0 0 195214703388.103
0 0 195074042618.86288
0 0 194868622737.3122
0 0 194610850970.7332
0 0 194372495029.09766
0 0 194470166041.5649
0 0 194950475665.65427
0 0 195262297565.12424
0 0 195311558039.31976
0 0 195311185817.85245
0 0 195273351087.0956
0 0 195121350576.40738
0 0 195050925343.75262
0 0 195193723794.40775
0 0 195291494583.96146
0 0 195305112422.8681
0 0 195306834731.28015
0 0 195311640755.47778
0 0 195251130074.62192
0 0 195140902903.6285
0 0 195205036420.5556
0 0 195310957725.03668
0 0 194994417474.77155
0 0 194155968923.61264
0 0 192741795956.7394
0 0 189087193937.37506
0 0 178195823923.00186
0 0 159284757311.49622
0 0 195159405365.70056
0 0 195183534390.36716
0 0 195260895496.29883
0 0 195311285751.82855
0 0 195302950546.12943
0 0 195275143789.61655
0 0 195196374027.1528
0 0 194988745933.45892
0 0 194668269664.35983
0 0 194547238131.96973
0 0 194802650073.4932
0 0 195063444549.48526
0 0 195137308581.04068
0 0 195155588195.5735
0 0 195220194839.19257
0 0 195280097770.70673
0 0 195307739356.4324
0 0 195311967694.83032
0 0 195310088309.2485
0 0 195312483343.4696
0 0 195285924847.081
0 0 195255639149.1677
0 0 195301730319.22922
0 0 195309617088.83032
0 0 195310477138.6591
0 0 195300183788.64957
0 0 195155297169.93164
0 0 194573757166.34726
0 0 193199871622.31448
0 0 190716814829.40558
0 0 185604113841.17245
0 0 179204316896.14542
0 0 195212267283.75467
0 0 195229299139.2261
0 0 195272139308.12915
0 0 195304651472.11697
0 0 195311204905.3397
0 0 195312271972.6241
0 0 195304599784.70258
0 0 195202517541.37323
0 0 194928803988.19714
0 0 194655690501.28522
0 0 194634156859.90646
0 0 194753968076.2992
0 0 194807314366.14667
0 0 194733821326.5657
0 0 194486133918.21075
0 0 194227048339.37393
0 0 194446224311.05484
0 0 194892028802.4156
0 0 195145292915.21872
0 0 195294542773.7622
0 0 195255729966.47537
0 0 195092315826.59766
0 0 195172302655.8993
0 0 195280519020.50778
0 0 195301794805.18857
0 0 195295129013.95993
0 0 195258026069.89267
0 0 195087982316.06787
0 0 194684613638.2351
0 0 194191749549.46112
0 0 192942744939.54974
0 0 190737291657.29242
0 0 195312385146.89893
0 0 195312411978.26508
0 0 195307900728.52127
0 0 195295013623.283
0 0 195298544573.45572
0 0 195311482007.48685
0 0 195309075167.20648
0 0 195209219950.89246
0 0 194812524618.68335
0 0 194253815149.1021
0 0 194002906826.16812
0 0 194237197551.28455
0 0 194555322947.917
0 0 194460093943.78
0 0 193644760265.65253
0 0 192569668797.5305
0 0 192767129192.3528
0 0 193903441229.72998
0 0 194724361389.9526
0 0 195173962263.94467
0 0 195300493360.3456
0 0 195065588140.8273
0 0 195034852272.0944
0 0 195183595886.67136
0 0 195231313974.3844
0 0 195181741839.38538
0 0 195134118690.78064
0 0 195175193913.62457
0 0 195260701071.7796
0 0 195312261095.3766
0 0 195295183958.8512
0 0 194644059496.02692
0 0 195069690619.2764
0 0 195082240866.3071
0 0 195054559234.53696
0 0 195010291698.5781
0 0 195089830426.4769
0 0 195251633957.84247
0 0 195282420167.4383
0 0 195077172842.68817
0 0 194234862186.95566
0 0 192953821835.29965
0 0 192355255944.1386
0 0 193225038045.03214
0 0 194365082946.94717
0 0 194567876546.22314
0 0 193680871058.4278
0 0 192265802300.8179
0 0 192245075028.9354
0 0 193473905166.30728
0 0 194401447578.1832
0 0 194830422077.28354
0 0 195203054854.4471
0 0 195281769894.49622
0 0 195074650868.5505
0 0 195023572652.9836
0 0 194926971126.3833
0 0 194537001996.39975
0 0 194294049199.34894
0 0 194767035203.45087
0 0 195274098057.51474
0 0 195130597057.4849
0 0 194831199941.13608
0 0 193457579353.80542
0 0 194389917806.8456
0 0 194557110836.00833
0 0 194555341243.09482
0 0 194480157922.39944
0 0 194696114566.6619
0 0 195122627006.21118
0 0 195232769828.9495
0 0 194864697468.7223
0 0 193336323394.30978
0 0 191014160352.46463
0 0 190009259313.39056
0 0 191879989345.28717
0 0 194166515836.7513
0 0 194766571760.71252
0 0 194121202129.0166
0 0 192813632282.388
0 0 192593049334.8989
0 0 193537876503.28983
0 0 194231083318.08423
0 0 194397782382.82025
0 0 194790629684.18906
0 0 195290743498.80057
0 0 195172669096.66214
0 0 194943639100.046
0 0 194577729296.33185
0 0 193583352245.72705
0 0 192872954919.80087
0 0 193845650849.26825
0 0 195095081950.01614
0 0 195171511563.92206
0 0 190595578151.86017
0 0 39203468539.514305
# End: Data Text
# End: Segment
