# OOMMF OVF 2.0
# Segment count: 1
# Begin: Segment
# Begin: Header
# Title: J
# meshtype: rectangular
# meshunit: m
# xmin: 0
# ymin: 0
# zmin: 0
# xmax: 32
# ymax: 32
# zmax: 1
# valuedim: 3
# valuelabels: J_x J_y J_z
# valueunits: A/m2 A/m2 A/m2
# Desc: Total simulation time:  0  s
# xbase: 0.5
# ybase: 0.5
# zbase: 0.5
# xnodes: 32
# ynodes: 32
# znodes: 1
# xstepsize: 1
# ystepsize: 1
# zstepsize: 1
# End: Header
# Begin: Data Text
0 0 147804598888.49973
0 0 149449459199.83908
0 0 157708680591.68445
0 0 170998219849.83713
0 0 184809284373.98328
0 0 194114948564.5606
0 0 194092972500.3041
0 0 188464336105.70584
0 0 184619120152.18643
0 0 184201621201.73825
0 0 186231258931.44025
0 0 189131923137.70602
0 0 191064332273.3376
0 0 191331366431.78094
0 0 190668655429.7924
0 0 190973138965.9199
0 0 193001210856.30014
0 0 194813558761.7396
0 0 195294396454.3221
0 0 195305455417.45782
0 0 195129726424.22055
0 0 194628948680.85364
0 0 194202794650.6756
0 0 194156034764.22592
0 0 194353674736.92517
0 0 194616727197.04156
0 0 194868307503.0604
0 0 195044525307.50327
0 0 195180610798.9962
0 0 195293502396.17883
0 0 195294700794.97284
0 0 195171856219.8622
0 0 161876541026.19067
0 0 162773001675.25122
0 0 168500932825.9525
0 0 177963754242.95844
0 0 187722911306.4986
0 0 194294971106.45987
0 0 194727102196.56815
0 0 191148554284.2745
0 0 188233256616.54193
0 0 187477249728.69592
0 0 188560276856.22305
0 0 190534536632.488
0 0 192012626361.42673
0 0 192334209138.89633
0 0 191978516441.0975
0 0 192290776728.61783
0 0 193772719143.77603
0 0 195027282406.94745
0 0 195311603448.4517
0 0 195310946555.37833
0 0 195266681508.09338
0 0 195061447888.5595
0 0 194908705347.3939
0 0 194946657630.64832
0 0 195064615687.73563
0 0 195166278747.63113
0 0 195235982233.24948
0 0 195271836628.21973
0 0 195296216884.9551
0 0 195312497083.63226
0 0 195290382160.61447
0 0 195247614115.97397
0 0 175641678384.5305
0 0 175861818465.1622
0 0 178862256726.1994
0 0 184210983304.15176
0 0 189983547124.6279
0 0 194221542975.67642
0 0 195247037179.41583
0 0 193697865546.54675
0 0 191805590858.16776
0 0 190779086365.57037
0 0 190938878717.6267
0 0 192009463166.3856
0 0 193041374305.5568
0 0 193384077194.3025
0 0 193261735357.17905
0 0 193520522002.86273
0 0 194468018606.29245
0 0 195205870030.39514
0 0 195300406932.72345
0 0 195270111241.70685
0 0 195308969817.78806
0 0 195304206844.0918
0 0 195300772516.2123
0 0 195312453302.6975
0 0 195298226945.8454
0 0 195270511614.80615
0 0 195253495258.4652
0 0 195256362509.96
0 0 195263411988.5732
0 0 195256788907.47195
0 0 195243353288.51346
0 0 195237889305.42786
0 0 184402990182.03726
0 0 184195562160.52707
0 0 185310934474.5402
0 0 187828219896.19073
0 0 190977444105.3827
0 0 193785090084.87357
0 0 195213259171.1886
0 0 195057859538.46564
0 0 194064125628.35468
0 0 193077095980.79147
0 0 192750761751.50974
0 0 193245130877.6001
0 0 193925524848.9345
0 0 194204161874.101
0 0 194163753114.15607
0 0 194327683318.03558
0 0 194890635838.5349
0 0 195287822823.19543
0 0 195261763343.61093
0 0 195190326711.30774
0 0 195223144139.7559
0 0 195241514195.52258
0 0 195191613732.79208
0 0 195055212529.06656
0 0 194888246197.79843
0 0 194793154896.37616
0 0 194795675654.61548
0 0 194868734599.65604
0 0 194960072785.01154
0 0 195035775827.16064
0 0 195099960637.17526
0 0 195146944783.6642
0 0 188736818901.1349
0 0 188273800625.0104
0 0 188364057825.46686
0 0 189361473670.03815
0 0 191092363487.2194
0 0 193079088834.20316
0 0 194647651510.87424
0 0 195301417561.94885
0 0 195034423680.81406
0 0 194354827988.83447
0 0 193976328889.27805
0 0 194207286575.98114
0 0 194609587401.3476
0 0 194754829130.72693
0 0 194692108719.9087
0 0 194752781900.30426
0 0 195075545994.387
0 0 195304681078.4273
0 0 195252402350.30872
0 0 195157751214.36316
0 0 195136271782.29483
0 0 195085852074.596
0 0 194919929662.05835
0 0 194631656792.0834
0 0 194341767134.3721
0 0 194196112641.92557
0 0 194216234010.13037
0 0 194352004205.51068
0 0 194543683187.42642
0 0 194748080714.16
0 0 194928356818.95056
0 0 195040245267.86798
0 0 190399417200.44534
0 0 189784343894.9112
0 0 189383225712.69467
0 0 189680885947.33664
0 0 190755116329.65402
0 0 192333399222.0241
0 0 193946870125.18402
0 0 195041766923.94424
0 0 195304528852.60416
0 0 195043107964.93918
0 0 194854287406.33063
0 0 194965554850.69595
0 0 195113539558.8093
0 0 195113190468.22647
0 0 194994406093.37302
0 0 194954438637.419
0 0 195121357332.63348
0 0 195291366992.44547
0 0 195295935242.14224
0 0 195228878187.4824
0 0 195170563061.8836
0 0 195060539874.97742
0 0 194817036561.41364
0 0 194443058447.37524
0 0 194077704296.60318
0 0 193880811072.74243
0 0 193893835982.08914
0 0 194073345324.95343
0 0 194358272250.84125
0 0 194677132154.94443
0 0 194936145143.34744
0 0 195074910394.7776
0 0 190682241521.71838
0 0 190039255792.8202
0 0 189515239515.96353
0 0 189618074946.38858
0 0 190497395458.71884
0 0 191934268495.9799
0 0 193526217461.00748
0 0 194736646520.60373
0 0 195249952819.47702
0 0 195308857743.027
0 0 195295986816.25714
0 0 195311054647.04193
0 0 195312420257.43967
0 0 195296419008.49487
0 0 195185720720.78268
0 0 195076009192.93436
0 0 195117760844.30447
0 0 195238353882.14603
0 0 195306680575.2904
0 0 195306516301.7257
0 0 195269208168.43213
0 0 195164475736.7
0 0 194927886501.90305
0 0 194568420182.6357
0 0 194213591020.8012
0 0 194018461839.7648
0 0 194052263747.71484
0 0 194279900497.93616
0 0 194616476852.2125
0 0 194947054705.8428
0 0 195161614003.05386
0 0 195247607885.40417
0 0 190688280893.58688
0 0 190223121784.7942
0 0 189933158240.99902
0 0 190185828418.9721
0 0 191059149038.32095
0 0 192327639231.73663
0 0 193636542312.288
0 0 194591495547.01035
0 0 195041042780.68344
0 0 195159414408.9672
0 0 195118273366.84814
0 0 195032622201.5972
0 0 195103549006.20135
0 0 195284377263.5083
0 0 195281894429.90097
0 0 195160107750.93192
0 0 195112759327.40466
0 0 195160016722.6783
0 0 195238358457.84174
0 0 195294130758.56696
0 0 195312095313.08987
0 0 195263568675.36514
0 0 195106918852.23688
0 0 194864868076.97415
0 0 194633903502.56802
0 0 194531137186.2717
0 0 194618640762.9503
0 0 194845286313.74744
0 0 195100088815.05014
0 0 195269166140.0948
0 0 195312498055.05347
0 0 195299726472.87228
0 0 190786741079.49408
0 0 190652352005.05844
0 0 190818567687.0997
0 0 191381532949.6092
0 0 192257288403.9077
0 0 193228088083.4225
0 0 194065863544.21365
0 0 194596751337.6759
0 0 194798493717.2964
0 0 194744149138.11914
0 0 194524661444.4843
0 0 194421958845.09753
0 0 194749212868.7753
0 0 195196054356.77042
0 0 195308589194.53284
0 0 195214726863.36728
0 0 195131749262.69626
0 0 195117027616.6931
0 0 195170289036.36874
0 0 195249446468.33636
0 0 195305630812.7955
0 0 195300106714.4066
0 0 195226502037.13535
0 0 195127366439.99985
0 0 195055690554.9866
0 0 195062531660.8065
0 0 195159235132.4384
0 0 195272830277.1807
0 0 195310710868.3951
0 0 195233138899.95193
0 0 195111077593.40857
0 0 195046219326.9067
0 0 191225418251.79254
0 0 191423320743.60248
0 0 192013940827.54236
0 0 192799130010.91428
0 0 193553773730.12433
0 0 194140292074.4584
0 0 194512339617.53683
0 0 194659670675.8075
0 0 194589529722.84775
0 0 194315145180.4826
0 0 193973369962.50272
0 0 193994640656.0328
0 0 194587404466.49557
0 0 195165569268.15036
0 0 195312174701.03958
0 0 195246686478.2395
0 0 195163834760.8043
0 0 195118566430.60532
0 0 195148966454.89236
0 0 195234068032.7467
0 0 195301169427.79404
0 0 195309013497.16846
0 0 195285616338.9042
0 0 195273031100.48395
0 0 195281459344.6315
0 0 195305135283.4701
0 0 195305373206.6312
0 0 195218689573.6314
0 0 195019809218.14383
0 0 194762847741.5876
0 0 194589878976.22662
0 0 194559217000.21103
0 0 192383513858.12387
0 0 192701279605.09937
0 0 193350566886.91397
0 0 194009026096.18384
0 0 194461907523.36102
0 0 194689120337.9634
0 0 194738674731.71887
0 0 194629547346.2523
0 0 194368075764.21478
0 0 194005784152.6081
0 0 193768125858.81863
0 0 194042352378.65067
0 0 194738852419.33905
0 0 195220846533.21768
0 0 195310985729.2057
0 0 195258134245.22165
0 0 195189425895.479
0 0 195138231854.6082
0 0 195156911495.57162
0 0 195240504972.54193
0 0 195303261250.06482
0 0 195311389656.55045
0 0 195308202717.45773
0 0 195312372748.6234
0 0 195302830826.7879
0 0 195243142055.9325
0 0 195081039057.884
0 0 194809847889.58667
0 0 194477474924.93613
0 0 194175970710.67944
0 0 194046462986.1157
0 0 194084381860.98367
0 0 193689401944.70892
0 0 193907836037.73218
0 0 194320581114.75708
0 0 194688671801.40054
0 0 194879725857.32416
0 0 194904768685.46155
0 0 194792812641.19083
0 0 194557946475.81915
0 0 194260216051.25714
0 0 194028197384.79257
0 0 194065659853.4499
0 0 194500873071.65234
0 0 195038097483.9186
0 0 195290897003.68546
0 0 195301457111.02722
0 0 195255862806.8609
0 0 195208124263.43747
0 0 195166287172.97366
0 0 195181254398.6048
0 0 195256547709.80292
0 0 195306846279.54678
0 0 195312237598.43655
0 0 195312386166.08105
0 0 195295218964.19907
0 0 195218254663.59375
0 0 195035660202.73785
0 0 194726556787.97015
0 0 194373784823.13217
0 0 194063335954.77966
0 0 193851119351.0146
0 0 193818154477.138
0 0 193911526784.32492
0 0 194629702517.6639
0 0 194704156110.40143
0 0 194859880914.93417
0 0 194995820068.6004
0 0 195040856195.91525
0 0 194980687526.40076
0 0 194813349927.56314
0 0 194573006723.98752
0 0 194380767048.5887
0 0 194380757230.4398
0 0 194630310109.2446
0 0 195009118140.2902
0 0 195264133419.11652
0 0 195309128915.13635
0 0 195260858728.01804
0 0 195220411107.70575
0 0 195193228075.91827
0 0 195172035597.96417
0 0 195197700169.68622
0 0 195267530975.38156
0 0 195307412779.05142
0 0 195312076650.0908
0 0 195303669889.44513
0 0 195245433846.272
0 0 195085635420.57144
0 0 194788497483.29282
0 0 194400916144.58817
0 0 194094406676.26837
0 0 193949199595.17465
0 0 193935477605.3653
0 0 194032859940.70242
0 0 194162068027.66498
0 0 195087511325.36588
0 0 195080922691.79922
0 0 195088880093.92047
0 0 195093946910.63858
0 0 195062344410.0608
0 0 194967657083.2029
0 0 194806268291.83456
0 0 194640587673.54602
0 0 194614485448.8253
0 0 194802610682.69403
0 0 195085816174.77136
0 0 195274273552.8187
0 0 195309672888.95316
0 0 195251905612.72485
0 0 195171721187.70184
0 0 195128761793.53442
0 0 195124530748.12164
0 0 195136248170.21692
0 0 195182513665.52234
0 0 195253342061.14066
0 0 195293616116.13263
0 0 195296971496.06345
0 0 195264336338.187
0 0 195157919451.64526
0 0 194929393501.98743
0 0 194561076896.1214
0 0 194169004811.12137
0 0 193980306020.0002
0 0 194050156535.79846
0 0 194257775790.37717
0 0 194478654363.57104
0 0 194626948695.21967
0 0 195128138171.72397
0 0 195095958902.50836
0 0 195053633277.49634
0 0 195010522690.14432
0 0 194963640025.4197
0 0 194901271347.4244
0 0 194825546095.1494
0 0 194792763759.0355
0 0 194897801202.14996
0 0 195114226050.30115
0 0 195275841211.05847
0 0 195312074356.27914
0 0 195280931762.86142
0 0 195198464344.0396
0 0 195069851809.5819
0 0 194993547269.99924
0 0 195015859583.52728
0 0 195069607734.59756
0 0 195126224841.56354
0 0 195184373862.94968
0 0 195217706072.44308
0 0 195209223058.06607
0 0 195154054741.05304
0 0 195028001362.4876
0 0 194787637793.42374
0 0 194433352731.67017
0 0 194110868608.46918
0 0 194045248765.2026
0 0 194261901849.21698
0 0 194583114210.64706
0 0 194836533447.59692
0 0 194965850482.04584
0 0 195058956111.9751
0 0 195031446351.46848
0 0 195001789572.67984
0 0 194988098340.0059
0 0 195001269359.33475
0 0 195026181739.5214
0 0 195044047799.73544
0 0 195071426712.20023
0 0 195150067987.71152
0 0 195253934893.548
0 0 195306965823.11215
0 0 195311000600.58624
0 0 195291055627.73007
0 0 195204999317.2304
0 0 195030241049.7769
0 0 194925299427.85922
0 0 194974629896.5644
0 0 195047770020.6543
0 0 195071706436.85443
0 0 195064758222.18607
0 0 195043428221.1378
0 0 195007424379.90378
0 0 194953066302.03522
0 0 194845417771.766
0 0 194645273065.41058
0 0 194379249527.07693
0 0 194180771341.00684
0 0 194211558076.32608
0 0 194471216322.89267
0 0 194793521082.57315
0 0 195019734222.84128
0 0 195120921240.56317
0 0 195102990116.42047
0 0 195099715488.94025
0 0 195106686642.13135
0 0 195129874529.43127
0 0 195170595682.364
0 0 195209678202.2124
0 0 195228152547.75815
0 0 195230435349.52197
0 0 195242435715.66483
0 0 195272777155.78214
0 0 195297695963.66995
0 0 195309508496.1359
0 0 195309527995.83472
0 0 195247898328.55804
0 0 195091558941.44836
0 0 194996890496.76508
0 0 195048369014.43558
0 0 195101174631.41156
0 0 195067341543.3773
0 0 194965195912.8211
0 0 194849482867.63922
0 0 194754202020.34244
0 0 194680717716.28784
0 0 194589784705.26923
0 0 194454306932.46713
0 0 194308205187.9718
0 0 194234189470.6953
0 0 194319390868.07596
0 0 194573733553.8839
0 0 194884967100.7642
0 0 195105806902.95734
0 0 195201426780.36426
0 0 195206657964.57748
0 0 195215315110.10693
0 0 195232460796.5644
0 0 195253983664.03708
0 0 195277108044.12646
0 0 195293073653.8235
0 0 195296091748.00635
0 0 195286406911.69058
0 0 195272367415.0021
0 0 195271580960.4525
0 0 195285157620.19296
0 0 195301526954.00412
0 0 195312478859.39417
0 0 195287344447.74908
0 0 195196146176.13223
0 0 195125061383.13022
0 0 195145402115.6219
0 0 195160972565.34814
0 0 195086526040.64352
0 0 194919143708.44965
0 0 194724337027.64142
0 0 194555420992.84363
0 0 194440467863.78638
0 0 194373190335.02786
0 0 194321830097.7723
0 0 194273733772.94492
0 0 194258403394.48962
0 0 194344305017.96994
0 0 194594369065.8086
0 0 194935716715.53925
0 0 195182829827.6396
0 0 195275455058.86893
0 0 195283651113.40186
0 0 195292020107.50745
0 0 195302171789.9394
0 0 195309127585.8827
0 0 195312300016.5245
0 0 195312107269.25183
0 0 195312168977.02036
0 0 195311528267.89246
0 0 195302227880.44373
0 0 195291851332.30768
0 0 195294316143.4331
0 0 195303416641.7217
0 0 195310748159.23883
0 0 195309939081.7997
0 0 195276171642.36383
0 0 195220628203.37933
0 0 195199647721.628
0 0 195179466436.6565
0 0 195082504761.15314
0 0 194885723215.1929
0 0 194646435967.67487
0 0 194434159367.42383
0 0 194321858796.15027
0 0 194329856677.06094
0 0 194380433094.94623
0 0 194402435783.64883
0 0 194409925642.4899
0 0 194480697621.385
0 0 194707231300.22208
0 0 195032876085.6783
0 0 195253544167.2739
0 0 195310218108.94156
0 0 195312359932.5568
0 0 195311704621.56448
0 0 195305974416.03296
0 0 195297156517.54016
0 0 195288412751.25067
0 0 195282210545.46234
0 0 195285514798.48148
0 0 195300555251.05908
0 0 195312121971.09268
0 0 195309054580.64575
0 0 195305137358.6372
0 0 195306374122.4596
0 0 195307698977.22482
0 0 195311413522.31778
0 0 195306342214.42432
0 0 195260902080.3837
0 0 195201024601.80048
0 0 195145051769.67325
0 0 195034586112.01675
0 0 194831514602.46844
0 0 194580641932.76468
0 0 194372795371.02478
0 0 194307388510.49124
0 0 194400833781.29208
0 0 194535033076.63947
0 0 194622148774.29675
0 0 194685885514.08115
0 0 194777667869.479
0 0 194950102377.9578
0 0 195162301989.5357
0 0 195289646174.48462
0 0 195312418849.76846
0 0 195279559396.29602
0 0 195262091599.21805
0 0 195240343433.00458
0 0 195229901220.6269
0 0 195232496311.26624
0 0 195241954517.6958
0 0 195259245638.7824
0 0 195286669750.08615
0 0 195309854324.27246
0 0 195309282563.46356
0 0 195300301717.80145
0 0 195300082254.99756
0 0 195301900702.24374
0 0 195306685624.47342
0 0 195311458524.7538
0 0 195263549501.05234
0 0 195156363025.5839
0 0 195060186382.1932
0 0 194950906669.3187
0 0 194772039075.31775
0 0 194552919076.88266
0 0 194387599821.6069
0 0 194363932512.81708
0 0 194493216386.1311
0 0 194666976712.6475
0 0 194812040610.89352
0 0 194942636350.725
0 0 195058442020.4926
0 0 195167364577.69037
0 0 195257744354.1772
0 0 195302606195.7665
0 0 195312297864.65988
0 0 195207129198.52087
0 0 195189200564.7142
0 0 195185023439.94043
0 0 195208919335.3508
0 0 195245112676.3459
0 0 195275333178.11047
0 0 195296791850.45428
0 0 195310847881.4602
0 0 195306928730.5591
0 0 195277362223.31647
0 0 195256990844.36218
0 0 195270326292.46246
0 0 195290349429.1483
0 0 195304764957.4554
0 0 195311236675.32227
0 0 195249010748.2468
0 0 195089590678.79822
0 0 194948163952.16672
0 0 194847715347.6407
0 0 194718926119.93024
0 0 194569584350.21613
0 0 194467284711.2448
0 0 194465689104.5786
0 0 194583850609.73254
0 0 194761010149.08813
0 0 194939138569.8579
0 0 195098245693.94797
0 0 195205762956.97226
0 0 195266273566.57858
0 0 195295291078.85757
0 0 195304616961.1268
0 0 195307300574.53888
0 0 195188021637.4601
0 0 195184695295.377
0 0 195207779457.07474
0 0 195254059535.28693
0 0 195293299858.22992
0 0 195310721440.1893
0 0 195310737278.95975
0 0 195295901843.15112
0 0 195257502920.6202
0 0 195201099304.64017
0 0 195178805861.39178
0 0 195219476742.70844
0 0 195271619076.91025
0 0 195301480018.9981
0 0 195311960388.98996
0 0 195257442384.65543
0 0 195088255355.18658
0 0 194909510745.6696
0 0 194804263080.64398
0 0 194727105055.44098
0 0 194658407031.83362
0 0 194621242502.2908
0 0 194628810091.57416
0 0 194707404665.64468
0 0 194853094801.59317
0 0 195023774911.77017
0 0 195170409159.07022
0 0 195256041293.21228
0 0 195292268060.79242
0 0 195302951931.57266
0 0 195301728407.08594
0 0 195297227556.0528
0 0 195234702161.5819
0 0 195235124787.03015
0 0 195256372741.77872
0 0 195290353770.9325
0 0 195310716811.51425
0 0 195309068003.97784
0 0 195290256049.76855
0 0 195256425567.2946
0 0 195201839918.79102
0 0 195134233821.58954
0 0 195103083959.9744
0 0 195149536236.1872
0 0 195227881013.6766
0 0 195280736829.0952
0 0 195308576690.48218
0 0 195299395285.54263
0 0 195192546035.5664
0 0 195019585135.0463
0 0 194898996279.481
0 0 194852130280.8684
0 0 194845830733.88934
0 0 194859614509.1663
0 0 194872939812.31287
0 0 194907216822.55945
0 0 194993063360.03986
0 0 195109480367.2481
0 0 195210043548.7411
0 0 195269226427.21964
0 0 195293296147.1323
0 0 195298466506.74124
0 0 195293546879.76825
0 0 195285592314.81924
0 0 195278994806.5216
0 0 195273382631.80438
0 0 195278722521.3523
0 0 195296972539.89236
0 0 195311030160.51465
0 0 195309290387.45102
0 0 195289740032.52155
0 0 195256028980.4787
0 0 195208664413.04388
0 0 195146272348.85318
0 0 195093371652.68634
0 0 195101769559.5059
0 0 195167811277.12808
0 0 195230154964.57175
0 0 195269674269.03104
0 0 195304752812.07733
0 0 195300629493.7867
0 0 195207945276.956
0 0 195100870479.8179
0 0 195060986514.77713
0 0 195077245973.48776
0 0 195111334043.1489
0 0 195129822258.36838
0 0 195140099187.80722
0 0 195167620017.4074
0 0 195210560472.67908
0 0 195251749232.4911
0 0 195280092570.59415
0 0 195292365710.1172
0 0 195293463599.17868
0 0 195288430831.1217
0 0 195281936021.96893
0 0 195285104675.33994
0 0 195270212438.71387
0 0 195258450778.114
0 0 195267457990.09732
0 0 195290490590.9277
0 0 195309073745.15268
0 0 195311219315.4858
0 0 195299220840.3498
0 0 195278121662.41806
0 0 195238679708.3772
0 0 195173855152.0318
0 0 195119933827.88617
0 0 195120430351.73428
0 0 195150713230.28207
0 0 195173050418.87082
0 0 195208988506.68015
0 0 195277942597.31473
0 0 195312238303.29092
0 0 195279300795.63824
0 0 195248186350.63104
0 0 195249547627.24588
0 0 195266126075.3768
0 0 195277149846.72922
0 0 195278865493.66345
0 0 195276826670.81247
0 0 195276177665.21674
0 0 195279811190.5973
0 0 195286824723.0266
0 0 195290963150.85495
0 0 195290271204.21967
0 0 195286931893.47488
0 0 195282760859.5483
0 0 195287523435.91464
0 0 195264810308.211
0 0 195234961670.11118
0 0 195229457230.5848
0 0 195255518739.3417
0 0 195289102796.10318
0 0 195308027508.28568
0 0 195312465724.03708
0 0 195310728930.15732
0 0 195297743738.58334
0 0 195249638369.174
0 0 195164378247.78653
0 0 195096872175.88303
0 0 195075235402.1336
0 0 195062103968.8451
0 0 195050897110.0144
0 0 195102084215.06836
0 0 195216927992.93143
0 0 195293810043.45734
0 0 195311942717.37225
0 0 195312076858.1745
0 0 195312169196.74942
0 0 195312494182.3121
0 0 195312327791.75723
0 0 195308820000.81802
0 0 195297867639.2852
0 0 195283965112.91595
0 0 195276533485.76074
0 0 195275980708.66974
0 0 195278193139.00015
0 0 195281062940.42584
0 0 195281559428.95486
0 0 195305689697.25116
0 0 195288342094.2605
0 0 195254640817.4265
0 0 195236733814.17505
0 0 195254587335.3952
0 0 195285037221.24252
0 0 195303202486.39423
0 0 195309439648.38654
0 0 195312006678.78915
0 0 195309642602.27316
0 0 195273294685.2255
0 0 195171202927.55887
0 0 195042666813.9663
0 0 194952096467.28726
0 0 194881307055.77356
0 0 194791287027.3827
0 0 194754243734.44598
0 0 194873519106.9781
0 0 195066684515.9642
0 0 195202988145.73065
0 0 195266977660.06302
0 0 195289865823.5077
0 0 195297621378.9405
0 0 195306685023.0236
0 0 195312424047.9627
0 0 195301121183.82907
0 0 195275453727.80444
0 0 195250474348.65936
0 0 195238405822.2182
0 0 195241789486.04785
0 0 195253884130.37494
0 0 195262470541.7047
0 0 195312377120.54364
0 0 195306672367.56302
0 0 195276215081.66748
0 0 195246451428.44443
0 0 195251787221.45447
0 0 195276856063.40588
0 0 195295704987.77704
0 0 195306006014.18405
0 0 195312112008.6505
0 0 195304659901.7816
0 0 195243282764.5201
0 0 195078184081.30106
0 0 194826385743.5105
0 0 194578656987.62158
0 0 194373432516.16064
0 0 194171556093.30286
0 0 194040331874.23206
0 0 194153760808.34872
0 0 194488245971.558
0 0 194832470771.7874
0 0 195067265758.4154
0 0 195196440702.36478
0 0 195260874321.7714
0 0 195298842871.3513
0 0 195312413058.95172
0 0 195294814327.50272
0 0 195253005793.6116
0 0 195200499942.69095
0 0 195158316714.1246
0 0 195148344896.80136
0 0 195168882314.08032
0 0 195192309858.40625
0 0 195302725339.06946
0 0 195312356254.7999
0 0 195285841630.05832
0 0 195240640240.68756
0 0 195229446377.78354
0 0 195249666695.17633
0 0 195276087433.93698
0 0 195301323967.43973
0 0 195312086906.75974
0 0 195274998319.40384
0 0 195136895113.51392
0 0 194828049058.68924
0 0 194322795354.19208
0 0 193731794778.3762
0 0 193229198426.14743
0 0 192881458262.7057
0 0 192739535815.14047
0 0 192929558774.78745
0 0 193436719656.9354
0 0 194045688367.96143
0 0 194573517065.45197
0 0 194954643764.57565
0 0 195181399138.0082
0 0 195288975190.43314
0 0 195311495707.40567
0 0 195275217420.72742
0 0 195196285097.84604
0 0 195084520590.43677
0 0 194974195255.8579
0 0 194923444247.33813
0 0 194945510891.20905
0 0 194989672735.0971
0 0 195273048383.82748
0 0 195310624226.41574
0 0 195289044400.5692
0 0 195226319213.01468
0 0 195196586528.0187
0 0 195209369459.74472
0 0 195245674483.29852
0 0 195294425473.06552
0 0 195308970225.20978
0 0 195221509928.39987
0 0 194970159806.71048
0 0 194454582400.00595
0 0 193572759831.82324
0 0 192428878726.39792
0 0 191420833701.18094
0 0 190898358002.78293
0 0 190890105076.81702
0 0 191275125178.87393
0 0 191957681634.32822
0 0 192822425306.38046
0 0 193729618978.59543
0 0 194523979031.80365
0 0 195047364889.82324
0 0 195273402535.57864
0 0 195310022194.9819
0 0 195247635683.62643
0 0 195112624255.8221
0 0 194904605811.2108
0 0 194674970534.4793
0 0 194531489475.53336
0 0 194502919722.91516
0 0 194523468479.43942
0 0 195201068149.15707
0 0 195305478354.7687
0 0 195285064767.9043
0 0 195200996717.82883
0 0 195154809081.8511
0 0 195161295508.2864
0 0 195206980452.6993
0 0 195281829342.42526
0 0 195308238877.99872
0 0 195184576122.50854
0 0 194837851025.8849
0 0 194128498850.61444
0 0 192870717284.4916
0 0 191158078045.06628
0 0 189619367046.48218
0 0 188909350967.3442
0 0 189039775239.987
0 0 189621895672.5555
0 0 190455952487.1705
0 0 191530845181.6573
0 0 192795718251.62042
0 0 194029156248.88312
0 0 194887274152.77292
0 0 195250965102.802
0 0 195309693977.2763
0 0 195223758038.55063
0 0 195030645090.5524
0 0 194720930277.61893
0 0 194365642765.4361
0 0 194111655602.46143
0 0 193972238604.4614
0 0 193812513510.9659
# End: Data Text
# End: Segment
