# OOMMF OVF 2.0
# Segment count: 1
# Begin: Segment
# Begin: Header
# Title: m
# meshtype: rectangular
# meshunit: m
# xmin: 0
# ymin: 0
# zmin: 0
# xmax: 1.6e-07
# ymax: 1.6e-07
# zmax: 5e-09
# valuedim: 3
# valuelabels: m_x m_y m_z
# valueunits: 1 1 1
# Desc: Total simulation time:  9.803860932666391e-11  s
# xbase: 2.5e-09
# ybase: 2.5e-09
# zbase: 2.5e-09
# xnodes: 32
# ynodes: 32
# znodes: 1
# xstepsize: 5e-09
# ystepsize: 5e-09
# zstepsize: 5e-09
# End: Header
# Begin: Data Text
0.08212816 -0.9765456 -0.19903198 
0.34467682 -0.8519968 -0.39408043 
0.7814714 -0.025353398 -0.6234259 
0.49043682 0.75164473 -0.44102386 
0.2511115 0.9255124 -0.28349563 
0.1564218 0.96732616 -0.19953024 
0.12561658 0.9800624 -0.15394236 
0.12991232 0.9839678 -0.12218966 
0.15081182 0.98632973 -0.06640532 
0.15871863 0.9872886 0.008344836 
0.14232667 0.98816794 0.05716047 
0.110597424 0.9918148 0.063809976 
0.075622536 0.9958669 0.050303362 
0.043447066 0.99839646 0.0362888 
0.0100000035 0.9998959 0.010403025 
-0.0058939233 0.9994123 -0.033768643 
0.00597967 0.99762523 -0.06861671 
0.02101671 0.99679255 -0.07722017 
0.019945335 0.9977588 -0.0638715 
0.001546108 0.99888885 -0.047104888 
-0.016628588 0.99946165 -0.02828413 
-0.034956712 0.99932736 0.011087615 
-0.0752605 0.99582595 0.05163898 
-0.13788377 0.98812 0.06787493 
-0.20120774 0.9769985 0.070636116 
-0.24117441 0.96703887 0.081674874 
-0.2547934 0.9587183 0.12625246 
-0.26803783 0.9398325 0.21182679 
-0.31248713 0.8981139 0.30942428 
-0.38781214 0.8421237 0.3747392 
-0.42506787 0.807796 0.4083907 
-0.3962694 0.8070093 0.43784317 
0.10171961 -0.7684149 -0.6318162 
0.22895402 -0.31632942 -0.92060626 
0.31149772 0.68484527 -0.6587535 
0.1624988 0.93650025 -0.31074342 
0.09495412 0.97688544 -0.19151658 
0.091850765 0.9860695 -0.13867421 
0.10069934 0.98940957 -0.104539275 
0.11337639 0.99004185 -0.083444566 
0.13031423 0.9902639 -0.048946925 
0.13110648 0.99136335 0.0031680544 
0.10759292 0.9934176 0.039308682 
0.0738884 0.9962383 0.045276184 
0.042167637 0.99842983 0.03687495 
0.01705899 0.9995497 0.024686128 
-0.0020877598 0.9999944 0.0026201704 
-0.004946475 0.9995002 -0.031223066 
0.010533685 0.99838084 -0.055900786 
0.02628854 0.99779356 -0.060966276 
0.027531873 0.9983339 -0.05071006 
0.009963831 0.9993009 -0.036032915 
-0.015975079 0.9996747 -0.019886574 
-0.04563867 0.9989355 0.0067093642 
-0.086592644 0.995761 0.031014021 
-0.13945824 0.9892894 0.043104246 
-0.19316436 0.9797677 0.052371986 
-0.22801034 0.9712839 0.06796213 
-0.23847398 0.9653356 0.10610054 
-0.2475105 0.9531278 0.17402846 
-0.28310227 0.9258231 0.25040892 
-0.3463087 0.8893604 0.29851016 
-0.38444206 0.86717904 0.31655166 
-0.36967257 0.8669204 0.3343519 
-0.21033524 0.4518332 -0.8669522 
-0.0758441 0.79318166 -0.6042439 
0.005787515 0.95690674 -0.29033786 
0.01121915 0.9901377 -0.1396476 
0.032074913 0.99456763 -0.09902817 
0.06395543 0.9954606 -0.0704833 
0.074125536 0.9963487 -0.042364746 
0.07794294 0.9965122 -0.029807422 
0.09031134 0.99581075 -0.01431397 
0.08768485 0.99603206 0.015216529 
0.056879476 0.9978131 0.033672195 
0.02099963 0.99932176 0.030252818 
-0.0028025135 0.9998418 0.017568523 
-0.011273361 0.99993646 0.00037667959 
-0.0068964115 0.9998346 -0.016830275 
0.00517165 0.999493 -0.031416062 
0.019363659 0.99908316 -0.03818402 
0.029700723 0.99879265 -0.039130468 
0.028747324 0.9988802 -0.037577342 
0.010303144 0.99942017 -0.03245269 
-0.022057325 0.9994909 -0.023053182 
-0.059313808 0.9982001 -0.008866566 
-0.094899386 0.9954809 0.0034574184 
-0.13126507 0.9912067 0.01669605 
-0.16986951 0.9848786 0.034039885 
-0.1956217 0.9794199 0.04968756 
-0.20117036 0.97693086 0.07166993 
-0.20612562 0.9722815 0.11036779 
-0.23255256 0.96006775 0.15552883 
-0.2799368 0.9431847 0.17899182 
-0.31462193 0.93272096 0.17619479 
-0.31527382 0.9326101 0.1756159 
-0.36193037 0.6572799 -0.66105187 
-0.19445628 0.8859553 -0.4210346 
-0.05536716 0.9805842 -0.18812002 
-0.003206094 0.9967758 -0.080174275 
0.028865151 0.99769014 -0.06149252 
0.050801434 0.99782395 -0.042031538 
0.042521797 0.9989929 -0.014322368 
0.032935373 0.999454 -0.0026258316 
0.044354632 0.9990068 0.0042736507 
0.04727811 0.99865663 0.021206953 
0.017893845 0.9994137 0.029191844 
-0.01519547 0.99972844 0.017667731 
-0.029129451 0.9995743 -0.0016626808 
-0.02239567 0.9994909 -0.022722704 
-0.002374391 0.99951994 -0.030892964 
0.013811591 0.9996398 -0.023012094 
0.01923041 0.99972034 -0.0137653155 
0.02056732 0.99964327 -0.017038865 
0.01935148 0.99936724 -0.029842662 
0.006638021 0.9993348 -0.035859823 
-0.025147837 0.99920624 -0.030896502 
-0.06373585 0.9976469 -0.025265746 
-0.08752234 0.9959506 -0.02054978 
-0.10297396 0.9946749 -0.004267853 
-0.12664652 0.991793 0.017537992 
-0.14635907 0.98889834 0.02567585 
-0.14988765 0.9883904 0.024861645 
-0.15220591 0.98780316 0.03283749 
-0.17043377 0.9840851 0.050288968 
-0.20159464 0.97788906 0.05561209 
-0.22556812 0.97331625 0.042126216 
-0.23055436 0.9725513 0.03144674 
-0.05742063 0.7524557 -0.6561351 
-0.0073965006 0.906541 -0.4220531 
0.033411145 0.97822887 -0.20482183 
0.055259254 0.9918488 -0.11481469 
0.08584022 0.9929764 -0.08142084 
0.080547474 0.99628955 -0.030318419 
0.03255511 0.9994394 0.007817445 
-0.0013044606 0.9999264 0.012066145 
0.005269559 0.9999658 0.0063788537 
0.014711538 0.9997909 0.014202068 
-0.005616491 0.9998358 0.017234687 
-0.026926894 0.99963725 0.0006925685 
-0.03039056 0.9992935 -0.022112573 
-0.018515151 0.99902564 -0.040064275 
0.0016653993 0.99936646 -0.035553113 
0.013288884 0.999851 -0.011025941 
0.010687466 0.9999157 0.0073731435 
0.0031597763 0.99999183 0.0025417064 
0.00042756615 0.99981904 -0.019023184 
-0.0033722387 0.9994115 -0.034134846 
-0.024659798 0.99907386 -0.035263512 
-0.053037237 0.9979549 -0.035682283 
-0.062140837 0.99752647 -0.03285461 
-0.063868865 0.9978608 -0.013951489 
-0.08151882 0.9966565 0.0055217054 
-0.1011905 0.99486417 0.002411428 
-0.10535446 0.99431336 -0.015537745 
-0.10391418 0.99428153 -0.02462137 
-0.11054682 0.9936773 -0.01961431 
-0.122516595 0.9922656 -0.019969601 
-0.13022289 0.990951 -0.032528535 
-0.13087872 0.9904693 -0.042911053 
0.076828316 0.9258488 -0.370002 
0.06151995 0.9650255 -0.2548357 
0.063263774 0.98446524 -0.16378659 
0.10037569 0.986867 -0.12656347 
0.13483092 0.9882873 -0.07147694 
0.096831866 0.9953008 0.000101587 
0.016069597 0.9995308 0.026078608 
-0.03190906 0.99946463 0.007239413 
-0.027317196 0.9995271 -0.0141218 
-0.012529137 0.99985546 -0.011501249 
-0.01696251 0.99983394 -0.006673185 
-0.016466564 0.99970895 -0.017631244 
-0.0070784586 0.9995246 -0.030009298 
3.2952594e-05 0.999484 -0.032120988 
0.0044442727 0.99984896 -0.01680249 
0.0020236603 0.999978 0.00631114 
-0.009976426 0.9998229 0.015959239 
-0.022278866 0.9997412 0.004609836 
-0.02060644 0.9996364 -0.017391095 
-0.013137867 0.99940795 -0.03179814 
-0.021937797 0.99913734 -0.035263635 
-0.037263405 0.998536 -0.039208792 
-0.035449177 0.9987083 -0.036403053 
-0.032321513 0.99933577 -0.01683405 
-0.048062526 0.9988427 -0.0018526015 
-0.06507658 0.99780184 -0.012516695 
-0.06579133 0.9971665 -0.036475483 
-0.05878703 0.99709684 -0.048393764 
-0.05489883 0.99747694 -0.04500987 
-0.050396238 0.99764574 -0.0465121 
-0.041866746 0.99745715 -0.057675965 
-0.034667697 0.9971814 -0.06653996 
-0.0026917562 0.9991018 -0.042289652 
-0.011091344 0.99941474 -0.032361086 
0.007409444 0.9988034 -0.04834109 
0.06181856 0.99615604 -0.062062636 
0.09677932 0.99488217 -0.029040428 
0.06531798 0.99771446 0.017301297 
0.00020478129 0.9997372 0.022923086 
-0.035923567 0.99931693 -0.008678932 
-0.028283479 0.99897087 -0.035460006 
-0.013862968 0.9994507 -0.030102279 
-0.012744499 0.99980253 -0.015251538 
-0.004427758 0.9999052 -0.013038624 
0.005509009 0.9999142 -0.011880405 
0.000824794 0.99998516 -0.005406784 
-0.010436569 0.9999409 0.0030785468 
-0.02239119 0.99970996 0.00886716 
-0.037603464 0.9992835 0.004302922 
-0.046375655 0.9988786 -0.009533461 
-0.037987597 0.998967 -0.02494019 
-0.024317686 0.99911636 -0.034282275 
-0.022493917 0.99911344 -0.035585698 
-0.024015196 0.9990603 -0.036081802 
-0.015419164 0.99943537 -0.0298532 
-0.012108248 0.999853 -0.012144945 
-0.023921652 0.9997041 -0.0044214074 
-0.03247452 0.9992525 -0.020976588 
-0.027550232 0.9986186 -0.04474324 
-0.019534973 0.99836516 -0.053716037 
-0.014802959 0.9986356 -0.050078437 
-0.0045844726 0.99856865 -0.05328844 
0.0125813885 0.9978276 -0.064666905 
0.02513787 0.9970445 -0.07259792 
-0.019744957 0.9931495 0.1151705 
-0.02742164 0.99536794 0.09214489 
-0.020931369 0.99873793 0.04565747 
0.008300485 0.9999419 0.006886121 
0.03428557 0.99941164 0.0009024671 
0.0323802 0.9994148 0.011030323 
0.009953672 0.99990094 0.009956384 
-0.005662461 0.99994504 -0.008830253 
-0.006133067 0.99964726 -0.025841927 
-0.009052102 0.99977493 -0.019184997 
-0.01971069 0.99980205 -0.002730465 
-0.01989238 0.9997911 0.004708137 
-0.017177703 0.99980026 0.0102114435 
-0.026284933 0.9995951 0.010896081 
-0.035270754 0.9993765 0.0016515856 
-0.039968334 0.99916744 -0.008179635 
-0.04605002 0.99879193 -0.017153814 
-0.047221042 0.9985657 -0.025235502 
-0.041659065 0.99857736 -0.033286832 
-0.03374988 0.9986488 -0.039516747 
-0.024829457 0.9990453 -0.03594635 
-0.01347797 0.99950767 -0.028333185 
-0.0015102315 0.99980766 -0.0195554 
0.00039307453 0.99995595 -0.009379231 
-0.0065883566 0.9998924 -0.013109913 
-0.008132622 0.9993589 -0.034867726 
-0.0030112546 0.9985001 -0.054667287 
-0.0031257533 0.99828273 -0.058496337 
-0.007967956 0.99852306 -0.05374298 
-0.00017250945 0.998338 -0.057630822 
0.020183127 0.9973826 -0.06943201 
0.03579596 0.9963438 -0.07757493 
0.032556135 0.99553734 0.0885758 
0.0076364535 0.99723715 0.07389035 
-0.023530588 0.9984421 0.05059441 
-0.03799129 0.99903125 0.022211237 
-0.026381081 0.99965185 -0.0004862584 
-0.006561782 0.99987817 -0.01416932 
0.012966113 0.999723 -0.01964263 
0.023404008 0.99962556 -0.014179532 
0.009475633 0.99994564 -0.004359914 
-0.025671575 0.9996629 0.0039018255 
-0.056941777 0.9983698 0.0039311326 
-0.061267 0.99812144 0.00014170962 
-0.05246022 0.9986145 0.004144705 
-0.047837894 0.9988524 0.0023407002 
-0.038635116 0.99918616 -0.011593174 
-0.028579455 0.9993843 -0.020357735 
-0.027455108 0.99933845 -0.023853216 
-0.031279955 0.99909025 -0.02898713 
-0.03643342 0.9986039 -0.03824793 
-0.031592067 0.9986018 -0.04238403 
-0.014044891 0.9994556 -0.029855272 
0.0010683815 0.9998441 -0.017627612 
0.006321709 0.99983436 -0.017067662 
0.0038674385 0.9997671 -0.021234853 
-0.0011409995 0.9994504 -0.033132397 
-0.0032284067 0.998736 -0.050160617 
-0.0032801237 0.99819064 -0.06003922 
-0.01233884 0.99811447 -0.060126536 
-0.025538685 0.99808294 -0.056376718 
-0.019730328 0.997929 -0.061225243 
0.0037507727 0.9972484 -0.07403767 
0.023310216 0.99615866 -0.084408 
0.030179482 0.99865645 -0.04212665 
-0.024003062 0.99933845 -0.027325034 
-0.09095826 0.9958347 0.006305731 
-0.13389908 0.9909296 0.011383692 
-0.12616071 0.99193496 -0.012189615 
-0.09281892 0.9948012 -0.041894328 
-0.04334541 0.996952 -0.064868376 
0.0036623876 0.99852735 -0.054128375 
0.0036985415 0.99980253 -0.019527083 
-0.041101117 0.99915445 -0.0010549183 
-0.07974929 0.9967263 -0.013301202 
-0.080113254 0.99640876 -0.027416138 
-0.063286155 0.99776495 -0.021446357 
-0.0502761 0.99860007 -0.01643921 
-0.033844866 0.999186 -0.021954516 
-0.019433876 0.99958396 -0.02131288 
-0.01676321 0.9997154 -0.01697946 
-0.021727309 0.99960333 -0.017918907 
-0.026150087 0.99936014 -0.024402907 
-0.012594119 0.99962527 -0.02430539 
0.011787359 0.99984276 -0.013251329 
0.019791517 0.9997076 -0.01390136 
0.011573759 0.9995324 -0.028304014 
0.0026664261 0.9992283 -0.039188247 
-0.004490924 0.9989387 -0.04584122 
-0.00979466 0.99875236 -0.048968226 
-0.0109588215 0.9986255 -0.05125509 
-0.021498922 0.998256 -0.054979544 
-0.037812408 0.99760824 -0.05786352 
-0.036586102 0.9970693 -0.06718969 
-0.015695605 0.99644136 -0.08281506 
0.004576194 0.9952812 -0.09692443 
-0.067817226 0.9148812 -0.3979865 
-0.14997771 0.9396183 -0.30761042 
-0.1907807 0.974394 -0.11899182 
-0.1991968 0.97984594 -0.014919431 
-0.17522725 0.984528 0.00023002352 
-0.14716491 0.9889905 -0.015505529 
-0.11662947 0.9919148 -0.05002548 
-0.066023946 0.9953608 -0.06998425 
-0.03436395 0.9980279 -0.052530352 
-0.046974085 0.998342 -0.0332681 
-0.06757435 0.9968171 -0.04230125 
-0.06468954 0.9964221 -0.05439088 
-0.05364356 0.9974568 -0.046928205 
-0.04793416 0.9981394 -0.037683662 
-0.038379345 0.99868256 -0.034063503 
-0.027994867 0.9993487 -0.022768294 
-0.02479706 0.9996713 -0.0065277144 
-0.025509963 0.9996673 0.003806722 
-0.020270098 0.99978954 0.0031645836 
0.004886505 0.999988 -0.00040960274 
0.029982075 0.9995454 -0.0032153982 
0.026728446 0.9995194 -0.01570103 
0.011079949 0.9995055 -0.029427547 
0.0054040714 0.99942327 -0.03352728 
0.0026194828 0.9994633 -0.032652713 
-0.00095406023 0.9995261 -0.030767554 
-0.0019983249 0.99929655 -0.037449613 
-0.013753414 0.9986519 -0.05005387 
-0.033108626 0.997593 -0.060927402 
-0.04164281 0.996431 -0.07342448 
-0.03020996 0.995613 -0.08855691 
-0.013717217 0.9945382 -0.1034685 
-0.25680488 -0.14790493 -0.95507884 
-0.43069425 0.22669847 -0.8735619 
-0.3704001 0.82227 -0.43206 
-0.23342912 0.96580637 -0.112822406 
-0.15357554 0.9881057 -0.007850575 
-0.12665778 0.9916148 0.025649372 
-0.13989559 0.9900821 0.0129122585 
-0.12830828 0.99104303 -0.03702367 
-0.08287736 0.99435407 -0.066266924 
-0.051218417 0.9965849 -0.06477185 
-0.04288334 0.99702865 -0.06399229 
-0.04139218 0.99695677 -0.06605938 
-0.04398964 0.9971821 -0.060769707 
-0.04756662 0.9974221 -0.053728 
-0.044199303 0.9979696 -0.04585953 
-0.038196817 0.99886686 -0.0283894 
-0.035070974 0.99937856 -0.0035583994 
-0.03167345 0.9993915 0.014615553 
-0.01965288 0.9997104 0.013896293 
0.007428198 0.99997115 0.0015683237 
0.024785386 0.999666 -0.0073275245 
0.017634539 0.9998055 -0.008838826 
0.01615195 0.99986035 -0.004291909 
0.031579748 0.99949634 -0.0031506584 
0.038587175 0.9992047 -0.010050566 
0.030664112 0.99931157 -0.020883149 
0.018051453 0.9991415 -0.037289258 
0.0017931056 0.998609 -0.052697606 
-0.01658725 0.9977127 -0.06553082 
-0.030915106 0.9966381 -0.075873144 
-0.02888539 0.9959434 -0.08522039 
-0.018956514 0.9952713 -0.09526621 
-0.21682315 -0.92904246 -0.2997799 
-0.43337238 -0.80657464 -0.4020271 
-0.6362009 0.35264134 -0.6862162 
-0.327649 0.9157196 -0.23260228 
-0.16008838 0.98637325 -0.03794187 
-0.11138606 0.9931929 0.034076273 
-0.13127476 0.99030155 0.04549566 
-0.14410535 0.98954445 -0.0059597436 
-0.104503125 0.9924885 -0.06360604 
-0.05044022 0.9955635 -0.07943004 
-0.023773711 0.9973452 -0.06882944 
-0.026671065 0.9978343 -0.060128003 
-0.040274914 0.99753135 -0.057526197 
-0.047264036 0.99738413 -0.05469186 
-0.044486277 0.99784994 -0.048129223 
-0.040077854 0.99868196 -0.032065734 
-0.037382446 0.9992776 -0.0068509886 
-0.033967823 0.9993779 0.009486114 
-0.023163365 0.9997317 -0.0002368163 
-0.0017479617 0.9998001 -0.019921675 
0.009135918 0.99979335 -0.018160025 
0.0113067515 0.99992055 0.005586221 
0.03767216 0.9990496 0.021925122 
0.075970635 0.9970275 0.012829991 
0.08160618 0.99662125 -0.009300527 
0.05253536 0.9982158 -0.02837938 
0.02024395 0.99889326 -0.0424554 
0.0038224508 0.9985836 -0.053066753 
-0.0063733547 0.9978427 -0.06534013 
-0.018932983 0.99720967 -0.07221202 
-0.02432371 0.9969805 -0.07374458 
-0.023589797 0.9969561 -0.07431052 
-0.21276242 -0.9757905 -0.050645676 
-0.42625594 -0.89236486 -0.14829385 
-0.8460135 0.092549406 -0.52506757 
-0.46316883 0.86855173 -0.17633101 
-0.22587405 0.97411984 -0.008462811 
-0.1406868 0.9892942 0.038785983 
-0.12265362 0.9915914 0.04126453 
-0.12115092 0.9926316 -0.002256272 
-0.088459365 0.9941945 -0.06125629 
-0.03617546 0.9961959 -0.07927912 
-0.009644363 0.99819165 -0.05933226 
-0.019593706 0.99880224 -0.04483545 
-0.039571304 0.99822754 -0.04445157 
-0.04730236 0.9979155 -0.043899707 
-0.04192792 0.9983308 -0.03972134 
-0.03447763 0.9990606 -0.026256986 
-0.03140639 0.9994982 -0.004126741 
-0.03194537 0.99948424 0.0032997692 
-0.027546084 0.9994358 -0.01922378 
-0.014179341 0.9990079 -0.04221542 
-0.0060016452 0.9996203 -0.026892632 
0.01073983 0.99988145 0.011035231 
0.05989577 0.99794525 0.02275711 
0.10601153 0.99436414 0.0012761668 
0.098151326 0.9949618 -0.020432409 
0.0499901 0.9983709 -0.027505688 
0.010134797 0.99942136 -0.032468367 
-0.0029216635 0.9989727 -0.045221012 
-0.011453951 0.9981074 -0.060420085 
-0.0271434 0.997755 -0.061222076 
-0.04424317 0.99791235 -0.04704829 
-0.05572654 0.9980299 -0.028825013 
-0.43646297 -0.89681625 -0.072254956 
-0.66694003 -0.7381131 -0.10188301 
-0.8511391 0.4557822 -0.26043218 
-0.41841298 0.90812206 -0.015652675 
-0.23658448 0.96909285 0.069907114 
-0.15860716 0.98566467 0.057523903 
-0.098757304 0.9945478 0.03349407 
-0.06923188 0.9975922 0.004086554 
-0.04735941 0.9980521 -0.04060872 
-0.013196181 0.9982024 -0.0584631 
0.002825805 0.999127 -0.041680824 
-0.014706519 0.999426 -0.030518152 
-0.04141359 0.9986283 -0.032036748 
-0.051862758 0.9980946 -0.03342767 
-0.04087298 0.99866617 -0.031550378 
-0.025028396 0.999533 -0.017535623 
-0.019989498 0.9997989 0.0016464675 
-0.025212122 0.9996794 -0.002372938 
-0.02890697 0.9989808 -0.03466818 
-0.025054866 0.99815506 -0.055306993 
-0.01883073 0.999344 -0.030936778 
0.008471278 0.9999377 0.007270399 
0.06554032 0.997804 0.009572233 
0.105074935 0.994373 -0.0134788845 
0.08674786 0.99601036 -0.02093173 
0.03894647 0.99913305 -0.014710392 
0.0061646304 0.9997274 -0.022521313 
-0.008292287 0.99900097 -0.04391261 
-0.028999077 0.9980742 -0.0548369 
-0.062338382 0.9974163 -0.035702262 
-0.104530275 0.9943787 0.016864967 
-0.13387324 0.98803186 0.076622866 
-0.8448488 0.35723707 -0.39826152 
-0.76027805 0.5830806 -0.28634664 
-0.4488741 0.8895425 -0.08500736 
-0.23233002 0.9695037 0.07800883 
-0.17150149 0.9780543 0.118309736 
-0.13202895 0.9881776 0.07793171 
-0.062034957 0.997162 0.04265802 
-0.022645565 0.9993787 0.027008774 
-0.012504899 0.9999011 -0.0064353943 
0.006798595 0.9995351 -0.029722603 
0.014350702 0.9995872 -0.024893178 
-0.00959576 0.9997263 -0.021339078 
-0.042412914 0.99876386 -0.025921524 
-0.053670887 0.9980831 -0.030814592 
-0.03664493 0.99888307 -0.029830795 
-0.0151657155 0.99978304 -0.01427601 
-0.008557707 0.99996275 -0.0011694204 
-0.014360247 0.99976176 -0.01643783 
-0.022897763 0.9985117 -0.049500003 
-0.028937666 0.9978844 -0.05821997 
-0.026859742 0.9992882 -0.026488002 
0.0040440224 0.9999797 0.0049454393 
0.057556827 0.99834216 -0.00039017978 
0.083947934 0.99628735 -0.019091181 
0.05960099 0.9981187 -0.014381823 
0.02154778 0.99976194 -0.0034531278 
0.0019104551 0.9998645 -0.016351521 
-0.012924069 0.99921286 -0.037508048 
-0.050258316 0.9981779 -0.03339035 
-0.11565945 0.9930541 0.02160194 
-0.20321047 0.9670385 0.15343443 
-0.2502432 0.919758 0.3023633 
-0.30442613 0.9361602 -0.17586604 
-0.24318336 0.9631942 -0.11453803 
-0.12864162 0.9916884 -0.00234827 
-0.07177049 0.9940185 0.08231916 
-0.07723145 0.9911216 0.10822821 
-0.074174166 0.99443185 0.07485648 
-0.024993166 0.99848175 0.049088564 
-0.0010914792 0.9988178 0.048599944 
-0.002692025 0.99973774 0.022746239 
0.014821844 0.99988407 -0.0035095094 
0.025189959 0.9996757 -0.0037402625 
0.0030203918 0.99999034 -0.0032163823 
-0.027867733 0.9995266 -0.013034995 
-0.035643063 0.9990175 -0.026337706 
-0.019222597 0.9993389 -0.03085979 
-0.003027442 0.9997316 -0.02296885 
0.0027723392 0.9996944 -0.02456455 
0.00015782245 0.9988417 -0.04811656 
-0.011712009 0.9974275 -0.07072032 
-0.028292445 0.9977965 -0.0600153 
-0.031919606 0.99926937 -0.021019017 
-0.0025267487 0.99998957 0.003802429 
0.042366892 0.999081 -0.0065016397 
0.055572443 0.9982075 -0.022215953 
0.027213603 0.999573 -0.01064372 
0.00030763517 0.9999957 0.0029386682 
-0.0019439731 0.9999262 -0.011997592 
-0.012566615 0.9993631 -0.033399798 
-0.07186702 0.99718255 -0.021498876 
-0.19831894 0.9772218 0.07554567 
-0.384545 0.8510347 0.35758245 
-0.4172767 0.6318241 0.65320635 
-0.0777866 0.99438304 -0.07177497 
-0.038565546 0.99825937 -0.04462191 
0.0053700907 0.9999427 0.009262132 
0.018070295 0.9983815 0.053925287 
-0.008868172 0.9966755 0.080990605 
-0.03369403 0.9976008 0.06047637 
-0.014964355 0.9988259 0.046076033 
-0.013615058 0.9985363 0.05234473 
-0.016897699 0.99940115 0.030196251 
0.010659619 0.9998673 0.012317101 
0.028898356 0.9993824 0.019993853 
0.015230684 0.99965507 0.02139671 
-0.0040774373 0.9999825 0.0042984798 
-0.004722273 0.9998124 -0.018784035 
0.006894857 0.9994715 -0.031769596 
0.014983183 0.99916804 -0.037932646 
0.020116214 0.9982768 -0.05512597 
0.01743197 0.99662614 -0.080203906 
-0.0011652957 0.9961483 -0.08767773 
-0.026724959 0.9978224 -0.060302205 
-0.036338 0.99916273 -0.01879993 
-0.013578215 0.9999072 -0.0011883173 
0.021516807 0.9996465 -0.015624699 
0.026968628 0.99917525 -0.030359741 
-0.0018782121 0.99983156 -0.018262856 
-0.021837408 0.9997388 -0.006752701 
-0.013925441 0.99965215 -0.022397548 
-0.023266954 0.9986924 -0.045522742 
-0.108919434 0.9931554 -0.042176977 
-0.3425012 0.9367792 0.07167867 
-0.7411852 0.38886225 0.5472026 
-0.619125 -0.21227853 0.75605685 
-0.013279088 0.9990695 -0.04103566 
0.019328855 0.99944127 -0.027270256 
0.043672245 0.99904555 0.00085909356 
0.045798156 0.9985571 0.028039968 
0.008943868 0.99850845 0.05386016 
-0.028218865 0.9989209 0.036888152 
-0.026815785 0.9992057 0.029479466 
-0.038128305 0.9985952 0.036796954 
-0.037876308 0.9990975 0.01922518 
-0.0052885446 0.9998754 0.014875511 
0.015550735 0.9993978 0.03102157 
0.0131115 0.9993991 0.03208694 
0.011383803 0.99987006 0.011420624 
0.02227534 0.9996678 -0.012966321 
0.03566821 0.99898493 -0.027512442 
0.043669175 0.9981972 -0.04117533 
0.046650257 0.9969279 -0.062917314 
0.033255756 0.99602157 -0.082675025 
0.0015152387 0.99658906 -0.082510546 
-0.0322298 0.9979828 -0.0546966 
-0.04730216 0.9986776 -0.020141445 
-0.030676434 0.99948937 -0.008944445 
0.000516096 0.99967176 -0.025617382 
0.006632461 0.9990915 -0.042098492 
-0.020417755 0.9991693 -0.03527048 
-0.038220823 0.9989577 -0.024955817 
-0.024875902 0.99909437 -0.03452215 
-0.027214307 0.997673 -0.062514834 
-0.11673145 0.98807794 -0.100377925 
-0.41748294 0.9056368 -0.07436484 
-0.721039 -0.5105358 0.46846145 
-0.40674052 -0.82466006 0.39306214 
0.012949231 0.9998679 -0.0098297 
0.0353115 0.9993732 -0.002511746 
0.043108977 0.99901974 0.010065118 
0.033683244 0.99910855 0.02544991 
-0.0127418535 0.9993046 0.03504256 
-0.042351272 0.9990837 0.00618127 
-0.040178634 0.999181 0.004797564 
-0.058188073 0.99821657 0.013335001 
-0.056739125 0.998389 -0.0002527466 
-0.026835794 0.99962866 0.0047352193 
-0.008208117 0.9997629 0.020173809 
0.0007279046 0.9998748 0.015812086 
0.017963419 0.9998367 -0.0020045983 
0.042874463 0.9989863 -0.013718705 
0.06239414 0.99791974 -0.01622512 
0.0692951 0.99730796 -0.02398134 
0.058440894 0.99748635 -0.04007198 
0.024875136 0.9980598 -0.05707851 
-0.01728704 0.9979421 -0.061747983 
-0.05076609 0.99778265 -0.043043487 
-0.06203829 0.997941 -0.016283061 
-0.04130841 0.9990869 -0.010905941 
-0.005205707 0.99946773 -0.03220509 
0.00582212 0.9985639 -0.05325684 
-0.01897243 0.99841356 -0.053014737 
-0.036926486 0.99844396 -0.041786063 
-0.026024504 0.9988247 -0.04089065 
-0.025186585 0.9969878 -0.07335585 
-0.09896931 0.9800584 -0.17230995 
-0.37192398 0.8635128 -0.3406146 
-0.50456685 -0.84239924 0.1891455 
-0.27429745 -0.9453786 0.17612599 
-0.034642905 0.99898714 0.028715637 
-0.025196278 0.99928963 0.028026778 
-0.025475826 0.9994768 0.019929826 
-0.03461233 0.9993337 0.01159247 
-0.057465784 0.9982318 -0.015197536 
-0.043151874 0.9980014 -0.046163633 
-0.035038665 0.9990144 -0.02724939 
-0.059729747 0.9980975 -0.015290937 
-0.05926056 0.9980524 -0.019486902 
-0.041161567 0.99912417 -0.007529881 
-0.029380595 0.99956226 -0.0034997473 
-0.010520411 0.99979347 -0.017392276 
0.020739106 0.9994569 -0.025613029 
0.052664183 0.99847966 -0.016278543 
0.07225212 0.99738383 -0.0022853354 
0.070701905 0.99749756 -0.00015986997 
0.041643195 0.99907786 -0.010455254 
-0.0055575036 0.99955195 -0.029411566 
-0.047134135 0.9980206 -0.041632544 
-0.07101152 0.9970117 -0.030413684 
-0.06804004 0.99763584 -0.009665327 
-0.035419956 0.99932164 -0.010094179 
0.002876933 0.99938774 -0.034869604 
0.010289193 0.9981947 -0.05917453 
-0.014881988 0.9977741 -0.06500286 
-0.03187956 0.9982262 -0.05028082 
-0.024442062 0.99923855 -0.030411044 
-0.019177454 0.9986359 -0.04856702 
-0.07247124 0.9836978 -0.16458043 
-0.31119803 0.84421694 -0.4364098 
-0.5891999 -0.7742079 -0.23118334 
-0.38937598 -0.9096595 -0.14458917 
-0.12156037 0.9925359 -0.009779832 
-0.113712735 0.9933763 -0.016524363 
-0.097777605 0.9946187 -0.034251753 
-0.07836839 0.99549997 -0.053274516 
-0.047919296 0.99561673 -0.080319114 
-0.0055740243 0.99733406 -0.0727582 
-0.014118812 0.9992664 -0.035601694 
-0.045224372 0.9987094 -0.023116332 
-0.053805016 0.99841875 -0.016283955 
-0.055179622 0.99841547 -0.011043518 
-0.04735111 0.9984492 -0.029278038 
-0.019073386 0.99857354 -0.04987221 
0.017498795 0.9989284 -0.042847253 
0.046240807 0.99883187 -0.014032045 
0.05860062 0.9982263 0.010496105 
0.04610741 0.9987755 0.017935498 
0.0065910667 0.9999353 0.009267129 
-0.039597448 0.9991095 -0.014568761 
-0.06869234 0.99698794 -0.036006745 
-0.07368984 0.99670964 -0.033759702 
-0.051463887 0.99850214 -0.018573882 
-0.014379472 0.9997366 -0.017886654 
0.007237291 0.99940056 -0.033855435 
-0.002101961 0.99857664 -0.05329537 
-0.026094027 0.99742407 -0.06681663 
-0.038617395 0.99756646 -0.058051333 
-0.03389252 0.9990733 -0.026532695 
-0.017151257 0.9996652 -0.019375335 
-0.026109451 0.9941026 -0.10525444 
-0.15407933 0.9194263 -0.3618215 
-0.4941098 0.28208426 -0.8223649 
-0.4082281 -0.23218182 -0.8828598 
-0.111621045 0.9902677 -0.08313056 
-0.09850467 0.99165314 -0.083192125 
-0.068687126 0.994069 -0.08431442 
-0.033693258 0.9958872 -0.08410392 
0.008162061 0.9970404 -0.07644594 
0.025679683 0.9988316 -0.0409397 
-0.0023923432 0.9999238 -0.012107413 
-0.032074604 0.9994841 -0.0016671094 
-0.05085572 0.9986924 0.0052179643 
-0.062415313 0.9980037 -0.009642781 
-0.051741544 0.9976354 -0.04523776 
-0.020451292 0.9978123 -0.06286937 
0.011367816 0.99906 -0.041832708 
0.029019069 0.9995745 -0.0029709197 
0.027587138 0.999345 0.02342478 
0.0031862159 0.99950886 0.0311758 
-0.036755428 0.99910706 0.020839052 
-0.06719297 0.99767864 -0.011075461 
-0.074135 0.9961911 -0.04590544 
-0.059183042 0.99667275 -0.056043535 
-0.026469827 0.99868596 -0.043883055 
0.001524699 0.9995155 -0.031091036 
-0.00029750532 0.9996747 -0.025505805 
-0.022833139 0.9991968 -0.032929737 
-0.041633464 0.9977278 -0.052970394 
-0.04964708 0.9971636 -0.056569356 
-0.0467499 0.99858004 -0.025543857 
-0.017414942 0.9998301 0.0060550678 
0.023674898 0.99949634 -0.021132115 
0.021907052 0.9893465 -0.14392227 
-0.04219236 0.9287413 -0.36831993 
-0.029505473 0.8572485 -0.514057 
-0.019115463 0.9959883 -0.08741801 
-0.00585008 0.9970936 -0.07596242 
0.016067829 0.99820316 -0.05772672 
0.034720667 0.99861753 -0.039465178 
0.045328863 0.9988459 -0.015883764 
0.029022645 0.9995298 0.009890486 
-0.0016613395 0.9997612 0.021789076 
-0.026539447 0.99920315 0.029811008 
-0.04733059 0.99850583 0.027314663 
-0.056645244 0.99839073 -0.0027095457 
-0.044469878 0.99811894 -0.04220211 
-0.017695028 0.9982863 -0.05577915 
0.005813314 0.99944854 -0.03269587 
0.010539557 0.99993765 0.0036864546 
-0.0061912453 0.99962544 0.026661221 
-0.039240595 0.99861145 0.035148893 
-0.071434416 0.9971043 0.026082225 
-0.082737446 0.99653053 -0.009027293 
-0.07403718 0.99591345 -0.051719528 
-0.05117956 0.9961439 -0.07126155 
-0.018733276 0.9978528 -0.062760256 
6.99573e-05 0.9991176 -0.042000983 
-0.011969383 0.99969596 -0.021560863 
-0.035768993 0.9991737 -0.019302499 
-0.05058845 0.9979723 -0.03863001 
-0.05779796 0.9972576 -0.046226043 
-0.05404293 0.9983884 -0.017321613 
-0.018985627 0.9994738 0.026298866 
0.03945779 0.9985215 0.037387475 
0.07925279 0.99682903 -0.007133794 
0.08847136 0.99209696 -0.08897538 
0.09864861 0.9838376 -0.14943902 
0.061663795 0.9970465 -0.045782465 
0.07218972 0.99700785 -0.027641293 
0.08133983 0.9966842 -0.0021094757 
0.078597285 0.9967174 0.01941629 
0.05925472 0.99759525 0.035953544 
0.026034277 0.9987678 0.04225197 
-0.0035761746 0.9990446 0.043555494 
-0.026463259 0.9985515 0.046847813 
-0.043103606 0.99837637 0.037240088 
-0.04750814 0.99885154 0.006206962 
-0.035875317 0.99897814 -0.027491476 
-0.012152395 0.999189 -0.0383891 
0.0065679103 0.99974734 -0.021500375 
0.0021488029 0.999993 0.0030657384 
-0.024871146 0.9995429 0.017191239 
-0.060746387 0.99783266 0.02529584 
-0.08255347 0.9963201 0.023046348 
-0.080801174 0.9967266 -0.0026979344 
-0.069014125 0.9967803 -0.04081949 
-0.05230083 0.99655455 -0.064371996 
-0.02906706 0.99759877 -0.0628639 
-0.01519514 0.9988615 -0.045219712 
-0.024788594 0.99939364 -0.024451995 
-0.042617064 0.9989034 -0.019390276 
-0.053071816 0.99806166 -0.03250346 
-0.057334676 0.9977129 -0.035801403 
-0.049834974 0.99871886 -0.008786442 
-0.01947902 0.99919844 0.034971405 
0.023707176 0.99784076 0.06125188 
0.052895077 0.99735236 0.049905032 
0.06513912 0.9977673 0.014744642 
0.07284485 0.9972317 -0.014916582 
0.10511375 0.99424493 -0.020689646 
0.117288396 0.9930961 -0.0019195982 
0.12448197 0.99192196 0.024396058 
0.11370104 0.99244523 0.046094388 
0.08135273 0.99510807 0.056051075 
0.03975223 0.9978739 0.051648688 
0.004619824 0.9989818 0.04488066 
-0.020612197 0.9988843 0.042487983 
-0.035749238 0.9987786 0.034110308 
-0.039799392 0.9991146 0.013646745 
-0.030281737 0.99952215 -0.0062139556 
-0.008819893 0.99990803 -0.010310428 
0.0070408722 0.99997413 -0.0015120661 
0.00018417464 0.9999935 0.0035990612 
-0.026328048 0.99965316 0.00060862326 
-0.05569233 0.99843985 0.0040390687 
-0.065277986 0.997786 0.01273052 
-0.057257116 0.9983383 0.0065018944 