# OOMMF OVF 2.0
# Segment count: 1
# Begin: Segment
# Begin: Header
# Title: m
# meshtype: rectangular
# meshunit: m
# xmin: 0
# ymin: 0
# zmin: 0
# xmax: 1.6e-07
# ymax: 1.6e-07
# zmax: 5e-09
# valuedim: 3
# valuelabels: m_x m_y m_z
# valueunits: 1 1 1
# Desc: Total simulation time:  7.835134627456404e-11  s
# xbase: 2.5e-09
# ybase: 2.5e-09
# zbase: 2.5e-09
# xnodes: 32
# ynodes: 32
# znodes: 1
# xstepsize: 5e-09
# ystepsize: 5e-09
# zstepsize: 5e-09
# End: Header
# Begin: Data Text
-0.19036464 -0.95104367 0.2434694 
-0.38616192 -0.69809943 0.6029397 
-0.028022889 0.8405486 0.541011 
0.094224565 0.9686682 0.2297903 
0.14251262 0.9806064 0.13454098 
0.14742799 0.9844473 0.09554396 
0.110376835 0.9917025 0.06590346 
0.067667075 0.9970376 0.036568295 
0.05025423 0.99873155 0.0031273973 
0.029152745 0.9993259 -0.02231335 
-0.0017075553 0.99947095 -0.032479912 
-0.0028478985 0.9997268 -0.023203053 
0.033073783 0.9994491 0.0027826852 
0.066908896 0.9970598 0.03735027 
0.070442624 0.99649805 0.045050796 
0.07037255 0.9970999 0.028974388 
0.0651902 0.9973279 0.032975875 
0.02867196 0.99831736 0.050402716 
-0.026890803 0.9986846 0.043658376 
-0.056402378 0.9983545 0.010355225 
-0.036933534 0.999298 -0.0062937285 
-0.024421388 0.9996545 0.009729787 
-0.061969005 0.9980292 0.00989125 
-0.12056293 0.99261445 -0.013462938 
-0.18382412 0.982867 -0.013461994 
-0.26894465 0.9630379 0.015063004 
-0.3671114 0.9285038 0.055766232 
-0.44860882 0.8864605 0.11374556 
-0.5082936 0.8387414 0.19532162 
-0.5571365 0.7779001 0.2906377 
-0.6036566 0.70149374 0.37882102 
-0.6306699 0.6379845 0.44184998 
-0.12051786 -0.93690556 0.32815158 
-0.30649048 -0.50989765 0.8037835 
0.04484189 0.862282 0.5044394 
0.13808711 0.97148424 0.19274428 
0.17245008 0.9789868 0.108838916 
0.16778879 0.98134357 0.09387101 
0.12315459 0.98812294 0.09190297 
0.066552 0.9947468 0.07777971 
0.032556638 0.9985317 0.04329755 
0.015519692 0.9998576 0.0066266772 
-0.00011115329 0.9999523 -0.009771877 
-0.0102773765 0.9999245 -0.006751901 
0.00074665825 0.9999995 -0.000627762 
0.02853168 0.9995484 0.009437697 
0.050440144 0.9986612 0.011470065 
0.06931791 0.9975369 0.010730637 
0.07224485 0.9969967 0.027897598 
0.041134458 0.9982524 0.04242713 
-0.0067173406 0.99969184 0.023897478 
-0.034626655 0.9992245 -0.018745733 
-0.027551118 0.99885076 -0.0392191 
-0.027951935 0.9993732 -0.021726733 
-0.065346226 0.99782205 -0.009003415 
-0.11357384 0.9934455 -0.012926487 
-0.15980557 0.9871461 -0.0022414848 
-0.21819703 0.9755151 0.027574234 
-0.28378287 0.95656073 0.06677555 
-0.33916363 0.9332406 0.118449 
-0.3825645 0.9049967 0.18607959 
-0.4203125 0.8678173 0.26501033 
-0.45777032 0.8209398 0.3413272 
-0.48114917 0.77977437 0.40055895 
0.25665364 -0.82718277 0.49989772 
0.2650615 0.10257544 0.95875996 
0.22830012 0.90802884 0.35123044 
0.19463222 0.97705966 0.086445615 
0.1921205 0.98123276 0.01649541 
0.18249497 0.98293453 0.023141125 
0.14477292 0.9876228 0.06034921 
0.08670335 0.9922731 0.08875043 
0.03381703 0.99588186 0.084117256 
0.006382299 0.9986623 0.051313035 
-0.0001392547 0.999762 0.021819746 
-0.012225061 0.99990195 0.0068315365 
-0.023881692 0.9996708 -0.009385578 
-0.012028312 0.99968493 -0.022034215 
0.018663634 0.99949735 -0.025626827 
0.0552521 0.998417 -0.010519354 
0.07102148 0.99719876 0.023463987 
0.050049707 0.99793196 0.040334854 
0.011575777 0.9998376 0.013813692 
-0.0131877 0.9992691 -0.035879407 
-0.014765077 0.99809563 -0.05989247 
-0.022147058 0.9988098 -0.04345751 
-0.053020716 0.99833935 -0.02252534 
-0.086616576 0.99615216 -0.0133609045 
-0.11256507 0.9936431 0.001579641 
-0.14128105 0.9895144 0.030016022 
-0.1737457 0.98243356 0.068094924 
-0.2050012 0.9722299 0.11288806 
-0.23294424 0.95858735 0.16385175 
-0.25522912 0.9412237 0.22126018 
-0.27343935 0.92112774 0.27704632 
-0.28322396 0.90385675 0.3206667 
0.9071232 0.08863581 0.41142607 
0.5545845 0.7555335 0.3487195 
0.27487528 0.95640785 0.09862931 
0.17688595 0.9839706 -0.02265724 
0.1431807 0.98698217 -0.07324934 
0.12701645 0.9895057 -0.068885975 
0.10824833 0.99391824 -0.020219233 
0.07905451 0.99620634 0.036379226 
0.04274542 0.99663717 0.069908276 
0.015408709 0.9977937 0.06457789 
0.009678485 0.9992988 0.036169864 
-0.0014048849 0.9999631 0.008473313 
-0.027254254 0.9994595 -0.018383307 
-0.036357325 0.9985328 -0.04013045 
-0.010757728 0.9988796 -0.04608488 
0.03367947 0.9991749 -0.02270041 
0.060274944 0.9979875 0.019698774 
0.049728982 0.9979871 0.039355785 
0.019068444 0.9997096 0.014738736 
-0.00128269 0.99952024 -0.030945584 
-0.0025216679 0.9985173 -0.054376815 
-0.0055355025 0.99907184 -0.042719297 
-0.025658103 0.9993818 -0.024036752 
-0.04731234 0.9987165 -0.018079953 
-0.05583729 0.99835247 -0.013217565 
-0.05944536 0.9982023 0.007641259 
-0.069936365 0.996646 0.042494766 
-0.090948045 0.99278694 0.078119636 
-0.113280125 0.98723507 0.11195833 
-0.12450698 0.9808473 0.14978914 
-0.12536277 0.97451913 0.18600169 
-0.121993855 0.96956396 0.21228093 
0.4758285 0.87048656 0.1258587 
0.3150881 0.94570905 0.07971272 
0.19324009 0.98098993 0.017808015 
0.12666187 0.99122566 -0.037794508 
0.07773974 0.9938345 -0.07905468 
0.037749894 0.99487436 -0.09380902 
0.02277234 0.9973966 -0.06842224 
0.022467459 0.9995829 -0.018149538 
0.01997502 0.99947554 0.025490811 
0.0130782025 0.99919814 0.03784435 
0.015198835 0.99968415 0.020013494 
0.011653103 0.99993074 -0.0016634935 
-0.015100537 0.99967486 -0.020547707 
-0.036343247 0.9984025 -0.043262526 
-0.018113803 0.9981957 -0.05724668 
0.02404005 0.99887717 -0.040823612 
0.049061354 0.9987881 -0.0039024113 
0.038289238 0.9990952 0.018514981 
0.009596211 0.999912 0.009166021 
-0.0054914067 0.99983203 -0.01749226 
0.00042647033 0.99943113 -0.033725288 
0.008048346 0.99953896 -0.029278232 
-5.748036e-05 0.999807 -0.019647956 
-0.011164332 0.9996407 -0.024370609 
-0.006359068 0.9993661 -0.03502876 
0.0050271517 0.99963856 -0.0264112 
0.0032757167 0.9999947 -0.00028084242 
-0.0155999465 0.99961144 0.02309996 
-0.034518845 0.998532 0.041742146 
-0.038009316 0.9971198 0.06563101 
-0.029652461 0.99549776 0.09002787 
-0.020712005 0.9941493 0.106010236 
0.18699573 0.9812122 0.04748857 
0.15193461 0.987487 0.04225352 
0.10872329 0.99384326 0.02132784 
0.07146268 0.9972583 -0.01921131 
0.02102046 0.9983039 -0.0542922 
-0.031952593 0.99610424 -0.082190886 
-0.04250222 0.99583644 -0.08064426 
-0.024326805 0.99875563 -0.04353639 
-0.005889073 0.99996275 -0.0063072736 
0.0035373894 0.9999857 0.0040191915 
0.00939984 0.99988455 -0.011947201 
0.010827951 0.9996174 -0.025454717 
-0.0053724665 0.99961525 -0.027213356 
-0.022621537 0.9989727 -0.039266977 
-0.008158677 0.9983367 -0.057074014 
0.024269406 0.9982327 -0.054244906 
0.0368371 0.9987788 -0.032925967 
0.017674074 0.99974924 -0.013754728 
-0.009135457 0.99992454 -0.00822172 
-0.014102788 0.9998166 -0.012958109 
0.0031584445 0.99982107 -0.018651599 
0.019618487 0.9996563 -0.01739361 
0.016933743 0.99978095 -0.012300067 
0.0098983655 0.9996461 -0.024690298 
0.021056585 0.9985295 -0.04995526 
0.03858901 0.997706 -0.055621605 
0.03772539 0.9984486 -0.040953323 
0.01949182 0.9993989 -0.028670715 
0.006893472 0.99977344 -0.020142531 
0.009445461 0.9999514 -0.0028228953 
0.017777663 0.9996485 0.019668026 
0.023711555 0.9991013 0.035134137 
0.08877325 0.989586 0.11330855 
0.07884279 0.99161094 0.10242844 
0.054832403 0.9964163 0.0644066 
0.027194703 0.9995661 0.011320234 
-0.019152943 0.9995057 -0.024933973 
-0.067877956 0.99615216 -0.055439055 
-0.07332679 0.99512774 -0.06590955 
-0.050120812 0.99768394 -0.045986578 
-0.020842185 0.9994808 -0.024572965 
0.0021060603 0.99978024 -0.020859243 
0.008785114 0.99931055 -0.036074746 
0.008383092 0.99886173 -0.046958536 
0.0021041261 0.9992357 -0.039034504 
-0.0058205863 0.9992973 -0.0370273 
0.004339501 0.9988657 -0.047419306 
0.02311048 0.99840885 -0.051436618 
0.023181772 0.9986234 -0.04705302 
0.00106289 0.9992537 -0.03861225 
-0.017487567 0.99946004 -0.027819747 
-0.012812234 0.9997312 -0.019325137 
0.0071128816 0.9998062 -0.018354315 
0.020219868 0.99965024 -0.017045561 
0.015000339 0.9998192 -0.011682216 
0.009344088 0.9996441 -0.024987984 
0.023243189 0.9982671 -0.054060414 
0.041704252 0.9969424 -0.06608039 
0.04041823 0.9974126 -0.059452526 
0.026392926 0.9981935 -0.05397412 
0.02240245 0.9985097 -0.04976601 
0.028011307 0.99897724 -0.035494376 
0.030162076 0.9994369 -0.014706067 
0.029006328 0.9995789 0.0008140074 
0.041294597 0.98994553 0.13528755 
0.03896161 0.9928191 0.11310361 
0.019139865 0.9978342 0.06293353 
-0.0041229464 0.99996966 0.0066159368 
-0.031938482 0.9993079 -0.019076472 
-0.058088563 0.99788064 -0.029326662 
-0.059490096 0.9977271 -0.031649947 
-0.0444207 0.9986798 -0.025798177 
-0.017434798 0.9995583 -0.024067769 
0.008586783 0.9995385 -0.029141227 
0.01530606 0.9987414 -0.047764126 
0.01735729 0.9976566 -0.06618285 
0.01811281 0.99799854 -0.06058907 
0.00854222 0.99881345 -0.0479443 
0.0037679242 0.99900883 -0.044353016 
0.0070491675 0.9990273 -0.04353019 
0.00217887 0.9990795 -0.042840637 
-0.010910469 0.99922395 -0.037847914 
-0.01405141 0.99956274 -0.026019678 
-0.0018889405 0.9998728 -0.01583937 
0.01185428 0.99979526 -0.01640098 
0.013772229 0.9997379 -0.018289005 
0.00566891 0.99983984 -0.016980823 
0.004490588 0.99957865 -0.028679146 
0.020489244 0.9985992 -0.048785124 
0.036715783 0.99773556 -0.056353915 
0.036292713 0.9979506 -0.052702587 
0.03011889 0.9982731 -0.050436508 
0.034919884 0.9982336 -0.04806655 
0.043199457 0.998335 -0.03822474 
0.041779414 0.99882716 -0.024469603 
0.036983773 0.9992238 -0.013562398 
0.041353486 0.99454457 0.09576524 
0.03751447 0.99658287 0.073588826 
0.006049103 0.99954474 0.029558994 
-0.02384686 0.9996255 -0.0134240305 
-0.037604686 0.9991404 -0.017452456 
-0.043879464 0.99903524 -0.0017690355 
-0.039798874 0.99920666 -0.0014758954 
-0.019745948 0.99960643 -0.019929195 
0.018650362 0.9991826 -0.035865266 
0.045359712 0.9983162 -0.03615573 
0.03705139 0.9981482 -0.04824263 
0.0252425 0.9967696 -0.07624464 
0.021364687 0.9964853 -0.08099854 
0.0055140583 0.99794424 -0.06385091 
-0.01145731 0.99868107 -0.050050266 
-0.017259061 0.99891746 -0.043196883 
-0.01930683 0.9990781 -0.03834399 
-0.01728514 0.9994511 -0.02826121 
-0.00522681 0.99990153 -0.013025787 
0.010919281 0.99993706 -0.0026045563 
0.015849048 0.9998693 -0.0032334314 
0.0072529633 0.99993503 -0.008795647 
-2.0929101e-05 0.9998483 -0.017421586 
0.0066301986 0.9995405 -0.029576905 
0.026124816 0.9989721 -0.037043214 
0.04241781 0.99849004 -0.034905795 
0.04726719 0.998485 -0.028169962 
0.05034294 0.998438 -0.024230367 
0.06219092 0.9977807 -0.023794368 
0.07521784 0.99687916 -0.023962295 
0.07758145 0.99667853 -0.02475934 
0.07505822 0.996888 -0.024096753 
0.15441318 0.98619694 0.059769336 
0.13689196 0.9895531 0.045225807 
0.061494242 0.9980795 0.0074691516 
0.0032231777 0.99967134 -0.025432372 
-0.016459068 0.9997455 -0.015432721 
-0.02135061 0.99967563 0.013885728 
-0.013887663 0.99986106 0.0092240935 
0.017558506 0.9995428 -0.024617698 
0.062713996 0.9970243 -0.044826243 
0.081098124 0.9959671 -0.038375814 
0.053540606 0.9977197 -0.041094597 
0.022649944 0.99763465 -0.06490206 
0.009303429 0.99742 -0.07118237 
-0.00772853 0.99817044 -0.05996841 
-0.023763003 0.99804956 -0.05772838 
-0.028779022 0.99764293 -0.062293403 
-0.025325198 0.9978158 -0.061011072 
-0.01380038 0.99889755 -0.044871632 
0.0031046898 0.99978954 -0.020281486 
0.01604927 0.99987113 -0.00028140904 
0.010776861 0.9998842 0.010745291 
-0.006294621 0.9999481 0.008011235 
-0.010419846 0.9998991 -0.009652259 
0.0062397704 0.99970675 -0.023401577 
0.032222603 0.9992577 -0.021117067 
0.054546904 0.99846405 -0.009707667 
0.07081706 0.9974866 0.0023306245 
0.084592834 0.996382 0.008188967 
0.101511195 0.9948296 0.0030852656 
0.11784091 0.99296093 -0.011921957 
0.12412942 0.99179 -0.03073583 
0.12358962 0.9914248 -0.042455226 
0.5065274 0.8475332 0.15848446 
0.4554896 0.87676644 0.1543048 
0.2283169 0.9708077 0.07351165 
0.087708645 0.9961427 0.0026519257 
0.03540734 0.9993524 -0.006421547 
0.014294211 0.9998116 0.013130662 
0.015871702 0.9998733 0.0013066765 
0.046291314 0.99846834 -0.030301819 
0.07972722 0.99608594 -0.03816255 
0.07983949 0.99658555 -0.021047385 
0.04012666 0.999068 -0.015907163 
0.009248762 0.99935615 -0.03466649 
0.006945072 0.99895465 -0.045181267 
0.0027543448 0.99869204 -0.05105643 
-0.0072055985 0.9974174 -0.07146162 
-0.012260646 0.99560016 -0.09289828 
-0.008364153 0.99534965 -0.09596428 
0.0007246736 0.99741656 -0.07183146 
0.008633983 0.9992547 -0.037625056 
0.009281715 0.9999074 -0.00995798 
-0.007041951 0.999907 0.011679491 
-0.027701719 0.99951565 0.014182232 
-0.02708586 0.9996207 -0.005000556 
-0.005988243 0.9998444 -0.016599534 
0.019715706 0.9997674 -0.0087456005 
0.046800874 0.99888265 0.006569557 
0.07540041 0.9969371 0.020768322 
0.09888725 0.9947443 0.026556294 
0.11686742 0.9930111 0.016461698 
0.12864208 0.9916544 -0.00853497 
0.12912823 0.99088526 -0.038371053 
0.123886086 0.99062705 -0.05753575 
0.6748867 -0.6393341 0.36848322 
0.865699 -0.19157411 0.462455 
0.4936353 0.81753117 0.29659253 
0.19771656 0.9758827 0.092526846 
0.08948788 0.9957368 0.022365533 
0.045419835 0.99888337 0.013006257 
0.033366237 0.99943525 -0.0040047206 
0.044127934 0.9987355 -0.02408725 
0.053530797 0.99834853 -0.020847773 
0.044539496 0.9990065 0.0015067427 
0.016557192 0.99979883 0.01132728 
0.008572391 0.99993885 -0.0069893864 
0.028262792 0.99915075 -0.029983543 
0.037217483 0.9977881 -0.055081043 
0.028554223 0.99580985 -0.08687645 
0.019899527 0.99365145 -0.110728584 
0.020980371 0.9938725 -0.10852363 
0.020770416 0.99688894 -0.076033406 
0.013229712 0.9990409 -0.041741148 
-0.0010656932 0.9998414 -0.017779259 
-0.024800984 0.9996796 0.005053954 
-0.041885052 0.99906176 0.011008425 
-0.03733369 0.9992983 -0.0030457322 
-0.02298344 0.9996693 -0.011536743 
-0.0064803846 0.999964 -0.0054882322 
0.021465573 0.9997506 0.006175248 
0.056078102 0.99826074 0.018190589 
0.082840905 0.9962723 0.024059357 
0.09946966 0.99489385 0.017095659 
0.10415428 0.99455684 -0.0029225936 
0.09374968 0.9951701 -0.029111978 
0.08022778 0.995645 -0.047484554 
0.2720761 -0.9585425 0.0846815 
0.49273106 -0.8426843 0.21702394 
0.5326475 0.68098074 0.5025455 
0.219425 0.95357484 0.206271 
0.09078431 0.99296784 0.07598116 
0.03583439 0.99887645 0.03101411 
0.01685867 0.9998569 0.0014397128 
0.015116965 0.9997821 -0.014403239 
0.012295862 0.9999036 -0.006449039 
0.0026837687 0.9998779 0.015396365 
-0.010374797 0.99973816 0.020396966 
0.007159132 0.9999625 -0.0048672226 
0.047703758 0.9983008 -0.033467337 
0.06384436 0.9964172 -0.05546772 
0.05462761 0.99542797 -0.07835192 
0.049128953 0.99413294 -0.096364655 
0.05171808 0.99477506 -0.08802179 
0.041187484 0.997608 -0.055514533 
0.019385269 0.99925494 -0.033375893 
-0.0041452893 0.99975663 -0.021671422 
-0.027070027 0.999618 -0.005575815 
-0.03630584 0.9993403 0.0009390311 
-0.03274535 0.9994495 -0.0053308243 
-0.03198387 0.9994383 -0.01000798 
-0.025467675 0.9996427 -0.008113406 
0.0004526546 0.99999076 -0.0042992057 
0.03215542 0.9994823 0.001154776 
0.056836534 0.99836004 0.006850447 
0.07542116 0.99711704 0.008334648 
0.08043346 0.9967598 0.0007671551 
0.06677268 0.99763787 -0.016131269 
0.050563805 0.9982056 -0.032078277 
0.08903458 -0.996027 -0.0017893144 
0.21754044 -0.9686575 0.119912416 
0.33038074 0.73639953 0.59039336 
0.12357223 0.9585939 0.256569 
0.034258056 0.99301183 0.11293398 
-0.009519842 0.9985223 0.053503882 
-0.0257565 0.99957633 0.013562302 
-0.025826717 0.9996303 -0.008507336 
-0.023907505 0.9996802 -0.008249027 
-0.027210975 0.9996243 0.003294872 
-0.027471466 0.9996224 0.0007619268 
0.0068031377 0.99977976 -0.019855842 
0.053246886 0.99809 -0.031322915 
0.06621396 0.99730164 -0.03170501 
0.061271194 0.99717677 -0.043409377 
0.069140196 0.99568504 -0.061895575 
0.07594317 0.9955562 -0.055683866 
0.05614765 0.9978593 -0.033531465 
0.024734447 0.9992995 -0.028085629 
-0.0023197916 0.99959284 -0.02844067 
-0.02210091 0.9995593 -0.019819083 
-0.027113961 0.9995729 -0.010913257 
-0.028233036 0.9995856 -0.0056098313 
-0.036793284 0.9993162 -0.0036490632 
-0.033362348 0.99942446 -0.006153897 
-0.009916688 0.9998716 -0.01259224 
0.013888629 0.99979514 -0.01472692 
0.033459492 0.999389 -0.010107187 
0.052152332 0.99861664 -0.0067093554 
0.05569837 0.9983538 -0.013691637 
0.03952736 0.9986402 -0.033991005 
0.022798963 0.99809855 -0.0572673 
0.11809395 -0.99136454 -0.05701059 
0.22800583 -0.9732568 0.028009415 
0.19539812 0.86903965 0.4545216 
0.03697847 0.97657037 0.21199767 
-0.024359128 0.9938125 0.10836749 
-0.055869844 0.9966613 0.05953956 
-0.06765946 0.9975006 0.020365497 
-0.06015192 0.99813074 -0.010805422 
-0.042371765 0.9987627 -0.026031453 
-0.031010672 0.9992117 -0.024788927 
-0.020228684 0.999474 -0.02534798 
0.014662319 0.99947035 -0.029052215 
0.0464583 0.9987901 -0.01612314 
0.046937663 0.99889576 0.0020590646 
0.047880538 0.99883056 -0.006703466 
0.07137928 0.99701065 -0.029577067 
0.08474764 0.9960258 -0.027396346 
0.06378596 0.9978473 -0.015233431 
0.032259367 0.99926 -0.020948177 
0.006495022 0.9995653 -0.028757742 
-0.011724629 0.99957806 -0.026577417 
-0.01716228 0.9997112 -0.016821202 
-0.021918243 0.9997502 -0.0043978086 
-0.032639343 0.9994668 -0.00089797983 
-0.028506957 0.9995333 -0.010976035 
-0.008966823 0.9996495 -0.024910882 
0.0059783245 0.99961716 -0.02701717 
0.017676298 0.9996097 -0.021635965 
0.02603535 0.9993166 -0.026243474 
0.012097916 0.99863917 -0.050730336 
-0.024265608 0.9949092 -0.09780989 
-0.05419898 0.9875106 -0.14793633 
0.39752597 -0.89935386 -0.18203257 
0.55495656 -0.81832254 -0.14957108 
0.23635095 0.9455005 0.22398002 
0.018645335 0.9911869 0.1311525 
-0.053013492 0.99569184 0.076075286 
-0.08316946 0.9956684 0.041561496 
-0.09090163 0.99582964 0.0077609406 
-0.07216099 0.99706864 -0.025436187 
-0.03643753 0.9983454 -0.044485193 
-0.012459827 0.9989531 -0.044018038 
0.0023513243 0.9992092 -0.039691236 
0.023542825 0.9992672 -0.030179968 
0.02961072 0.99955714 -0.0029778813 
0.016600315 0.9996193 0.022038436 
0.022158906 0.99966043 0.01371186 
0.05543708 0.9984424 -0.006295785 
0.07469466 0.99720126 -0.0032454506 
0.061987028 0.99807245 0.0030277816 
0.041902307 0.9991006 -0.0065004015 
0.024410164 0.9995673 -0.016415166 
0.009289505 0.99976677 -0.019495534 
0.0018817201 0.9998918 -0.0145919975 
-0.0069995425 0.9999532 -0.006687692 
-0.020280173 0.9997442 -0.010016655 
-0.017775685 0.99953127 -0.024927694 
-0.0019045698 0.9994024 -0.034514 
0.009506175 0.9995581 -0.028165817 
0.016829045 0.9995777 -0.023688793 
0.013577755 0.9989598 -0.043531638 
-0.025579153 0.99422723 -0.10420225 
-0.10994812 0.9692491 -0.22015327 
-0.18278071 0.9256477 -0.33131197 
0.6237514 0.7566385 -0.19604158 
0.51353025 0.8535621 -0.087854534 
0.14972344 0.98696333 0.059044663 
0.0006683974 0.9981135 0.061393417 
-0.0646461 0.9969621 0.043445893 
-0.09603574 0.99515235 0.021187896 
-0.10079698 0.99488825 -0.0061141127 
-0.071267046 0.9968463 -0.034905672 
-0.021337617 0.9985336 -0.049752984 
0.010499916 0.9988961 -0.045786012 
0.020747354 0.9991001 -0.03699518 
0.020738555 0.99954784 -0.021772139 
0.0043691928 0.99996334 0.0073722242 
-0.01544522 0.99948984 0.027958531 
-0.007180974 0.99984735 0.015928557 
0.027096443 0.9996324 -0.00096705835 
0.048841413 0.9988046 0.0019649172 
0.05024817 0.9987154 0.0065433993 
0.04907583 0.998786 0.004256571 
0.043245237 0.9990614 0.002512671 
0.032413345 0.99947375 -0.0012210568 
0.026034914 0.99964 -0.0064920187 
0.01765619 0.99975103 -0.013648473 
0.003275156 0.9996477 -0.026341507 
0.0006271384 0.99928373 -0.037838038 
0.009456654 0.99929696 -0.03627946 
0.018101906 0.99951977 -0.02514934 
0.029294686 0.9991655 -0.028463755 
0.036301356 0.9964718 -0.075671 
-0.0047077956 0.9742887 -0.22525415 
-0.17086641 0.8269769 -0.53564346 
-0.3229644 0.58752304 -0.7419641 
0.22931837 0.9698889 -0.08202823 
0.18467295 0.9819028 -0.041986436 
0.07337991 0.9972826 0.006548404 
-0.009538413 0.99975485 0.01998627 
-0.06922121 0.9974702 0.016180374 
-0.10274652 0.99470454 0.0024599007 
-0.100688644 0.99478626 -0.016189191 
-0.057630517 0.9977858 -0.033200536 
0.00043617128 0.99939305 -0.0348352 
0.029982297 0.99926215 -0.02400672 
0.027654214 0.9995108 -0.014610749 
0.0076035843 0.9999702 -0.0013879685 
-0.0222687 0.99956334 0.01942573 
-0.04249229 0.9988398 0.022659121 
-0.03359464 0.999429 -0.003618465 
-0.0055405605 0.99967414 -0.02491883 
0.015592864 0.9996245 -0.02253583 
0.031142617 0.9994781 -0.008580154 
0.04559827 0.998906 0.010377818 
0.04675845 0.9985858 0.02529748 
0.04126677 0.99888086 0.023113279 
0.045116495 0.9989719 0.0044486867 
0.04799983 0.99861085 -0.021736952 
0.037441615 0.99834234 -0.043711215 
0.026475012 0.9983022 -0.051882062 
0.021672484 0.99879473 -0.04404102 
0.027240697 0.9990951 -0.032664146 
0.060949888 0.9970831 -0.04594095 
0.12837675 0.98172414 -0.14048935 
0.18005776 0.86746264 -0.4637757 
-0.03041803 0.034567084 -0.99893945 
-0.10550397 -0.627246 -0.77164197 
0.13650818 0.9894304 -0.04891939 
0.1232437 0.99186033 -0.032001026 
0.07510334 0.9971244 -0.010128088 
0.008054283 0.99996746 -0.00051055034 
-0.05734027 0.9983531 -0.0018054289 
-0.092089035 0.99569666 -0.010384862 
-0.0807708 0.99650514 -0.021302441 
-0.031682055 0.99921674 -0.02371076 
0.01790692 0.9997905 -0.009921071 
0.034195025 0.999408 0.003808454 
0.019362016 0.999782 0.007817286 
-0.012072956 0.9998152 0.01496158 
-0.043578226 0.99877083 0.023619823 
-0.056053184 0.9983989 0.0075977533 
-0.044757497 0.998506 -0.031346858 
-0.022970794 0.99822724 -0.05490573 
-0.0028497386 0.9988972 -0.04686578 
0.017511724 0.99967784 -0.018374154 
0.033647522 0.9993179 0.0152259 
0.03632697 0.9987155 0.03532171 
0.03931197 0.9987699 0.03022276 
0.05718633 0.99836224 0.001615682 
0.07163225 0.9967524 -0.03679017 
0.06438721 0.9959144 -0.063315205 
0.04519945 0.9965149 -0.07010719 
0.02921312 0.99770844 -0.06102863 
0.041364346 0.997862 -0.050601978 
0.11915817 0.9901776 -0.07314145 
0.2923126 0.93437105 -0.20372538 
0.5436249 0.6141722 -0.57207036 
0.35109687 -0.56054384 -0.75001436 
0.16259754 -0.88886034 -0.42835674 
0.18521541 0.98269624 0.0018371298 
0.16258067 0.9866353 0.010875043 
0.10420946 0.9944792 0.012318722 
0.026762132 0.99963933 -0.0022802271 
-0.0388228 0.9990651 -0.019020258 
-0.060083106 0.9977602 -0.029406985 
-0.03452427 0.9988598 -0.03297227 
0.0097761 0.99976987 -0.019097986 
0.03485263 0.9993613 0.0078945635 
0.029197799 0.99934876 0.021203134 
0.0027666297 0.9998053 0.019539958 
-0.03185182 0.999277 0.020761086 
-0.054243226 0.9983483 0.01893093 
-0.051747516 0.99864167 -0.0060965028 
-0.034879997 0.998477 -0.04274671 
-0.015247154 0.9981205 -0.059356056 
0.0032181994 0.9989196 -0.046360545 
0.016637921 0.9996703 -0.019558085 
0.023155265 0.99973047 0.00169627 
0.02529527 0.99963355 0.00964792 
0.035628967 0.99935913 0.003476055 
0.059470188 0.9980296 -0.020008955 
0.07558864 0.99574333 -0.052741565 
0.06922427 0.9948505 -0.07403121 
0.04812288 0.99556553 -0.080829695 
0.030601995 0.9964941 -0.077865705 
0.053612567 0.99552894 -0.07776818 
0.15988985 0.9799732 -0.118692026 
0.37778708 0.8845007 -0.27374366 
0.6761355 0.44801778 -0.58491105 
0.62605816 -0.57901376 -0.52229714 
0.40485573 -0.8812844 -0.24378219 
0.22063772 0.97118014 0.09015612 
0.18114378 0.9802793 0.078990296 
0.10976787 0.99301326 0.04330905 
0.037670095 0.99926364 -0.007298187 
-0.0031511066 0.9992593 -0.03835237 
0.0033378252 0.9991931 -0.04002577 
0.036350694 0.99901587 -0.025417062 
0.057371717 0.99834794 0.003141312 
0.04792298 0.99845934 0.027972125 
0.02244973 0.9993449 0.028389001 
-0.008988027 0.99980545 0.017559273 
-0.042189818 0.99904215 0.011620288 
-0.056350596 0.99840474 0.003548078 
-0.044412423 0.99890614 -0.014631453 
-0.023770377 0.9992511 -0.030534139 
-0.0029331371 0.9995367 -0.030297048 
0.013223064 0.9997444 -0.018340573 
0.017894238 0.99974334 -0.013895879 
0.017791089 0.9995387 -0.02461347 
0.023713069 0.9991093 -0.03490562 
0.039716035 0.9985281 -0.03693634 
0.060343128 0.9972388 -0.04328443 
0.06870853 0.9959889 -0.057316724 
0.059719983 0.995972 -0.06688311 
0.039469566 0.9965958 -0.072382085 
0.024986148 0.9968473 -0.075308576 
0.05483699 0.99515086 -0.08165551 
0.16385871 0.97947365 -0.117395245 
0.37353104 0.8992101 -0.22780675 
0.69589496 0.5916126 -0.40709326 
0.9245741 -0.23683684 -0.2984479 
0.6731191 -0.739512 0.005710768 
0.18031463 0.97327435 0.14221002 
0.1405981 0.98374426 0.1117113 
0.08089683 0.99536467 0.05200927 
0.03430035 0.99935484 -0.010655529 
0.021942588 0.9991835 -0.03392725 
0.04123194 0.99899507 -0.017577227 
0.06276206 0.99797904 0.009938218 
0.059410498 0.9976772 0.0333246 
0.035557315 0.9986599 0.03760502 
0.01032527 0.9997214 0.021228699 
-0.0142101515 0.9998964 0.0023081638 
-0.037674066 0.99922067 -0.011779827 
-0.045188654 0.9987204 -0.022708042 
-0.03497175 0.9990237 -0.026996106 
-0.016727138 0.9997036 -0.017695066 
0.0041932864 0.99999076 0.0009139099 
0.01742051 0.9998063 0.009160411 
0.017852578 0.99978554 -0.010494605 
0.017649673 0.9987387 -0.047005676 
0.030000174 0.9971698 -0.06893886 
0.05038637 0.9964412 -0.06757475 
0.06335346 0.9962399 -0.059097555 
0.056812663 0.9969229 -0.05401024 
0.03662507 0.9980212 -0.051110916 
0.012965847 0.998525 -0.05272252 
0.0025537414 0.9984183 -0.05616526 
0.038210604 0.9975127 -0.059232615 
0.14094701 0.9875765 -0.069474705 
0.31998804 0.9422019 -0.09931374 
0.6016392 0.79203886 -0.10346338 
0.940464 0.31363785 0.13099177 
0.8198307 -0.34209746 0.45918068 
0.10795826 0.9882986 0.10775373 
0.07640998 0.9940353 0.07781573 
0.034571424 0.9990813 0.025327556 
0.00877945 0.9997037 -0.02270719 
0.006849016 0.9994758 -0.031643707 
0.020236336 0.99975795 -0.008634068 
0.030563867 0.99941045 0.015644155 
0.029115563 0.999255 0.025337065 
0.021627076 0.9995912 0.018704457 
0.007846801 0.9999588 0.004571439 
-0.0110549135 0.9998753 -0.011285211 
-0.024951557 0.9992709 -0.028898716 
-0.028659152 0.99871707 -0.04174761 
-0.024505086 0.9988589 -0.04099337 
-0.010805013 0.9997207 -0.021022756 
0.007784833 0.99995065 0.006178502 
0.017846704 0.9997707 0.011838695 
0.018425262 0.9996998 -0.016155198 
0.022339221 0.9981624 -0.056327734 
0.040370964 0.99598503 -0.07990126 
0.061932396 0.99492407 -0.07931288 
0.06411122 0.9958662 -0.06434492 
0.039854076 0.9980112 -0.048840303 
0.006291379 0.99917656 -0.040084124 
-0.019905608 0.9990457 -0.038879257 
-0.02566397 0.9988255 -0.041099243 
0.009230937 0.9991656 -0.039785482 
0.090566635 0.99545485 -0.029452007 
0.20487972 0.97871995 -0.011474056 
0.3394551 0.9398476 0.0381695 
0.46881774 0.8610377 0.19703858 
0.4856294 0.76832616 0.41694006 
0.052493118 0.9981237 0.03152012 
0.025041768 0.9995716 0.015147405 
-0.0076650535 0.99984974 -0.0155523615 
-0.023268247 0.9987814 -0.043524902 
-0.022155534 0.9986393 -0.047209393 
-0.012654568 0.999369 -0.033188406 
0.0010792846 0.99977934 -0.020977436 
0.018275598 0.999711 -0.015621293 
0.029150208 0.9994932 -0.012800004 
0.016832568 0.999813 -0.00952178 
-0.009020855 0.99987364 -0.013091111 
-0.02488268 0.9993205 -0.027191985 
-0.027758684 0.9986766 -0.043296244 
-0.020473635 0.9986703 -0.047313634 
-0.0032585342 0.99962384 -0.027233388 
0.01249043 0.999922 -0.00027860043 
0.018114666 0.9998359 -0.0003168847 
0.020884857 0.9993341 -0.029920943 
0.029842848 0.99747676 -0.06441752 
0.049564756 0.99513584 -0.085136056 
0.06702972 0.99431086 -0.082782716 
0.05833735 0.99637884 -0.06185605 
0.023266787 0.9988117 -0.04282494 
-0.015667224 0.9992291 -0.035998136 
-0.039540045 0.99853873 -0.036839098 
-0.040208556 0.9982768 -0.042739566 
-0.012124038 0.99888194 -0.045693196 
0.038670626 0.9987068 -0.03300672 
0.09338837 0.9956122 -0.0059060673 
0.1368918 0.99007803 0.031720452 
0.15452972 0.9837177 0.091761686 
0.13987613 0.9774748 0.15804377 
0.014341737 0.9997161 -0.019026276 
-0.011996197 0.9996994 -0.021385523 
-0.040593795 0.9986133 -0.033523437 
-0.050004557 0.9975289 -0.049351893 
-0.04466322 0.99743724 -0.055895783 
-0.033743683 0.99786836 -0.055857558 
-0.012270176 0.99836445 -0.055839386 
0.020600336 0.9984679 -0.051356945 
0.042549063 0.9983036 -0.03974394 
0.029931683 0.999289 -0.022929376 
-0.005048419 0.99991184 -0.012282704 
-0.030516634 0.99937737 -0.017708147 
-0.03324267 0.99884874 -0.034586553 
-0.016358647 0.99899435 -0.041747276 
0.004613242 0.9997225 -0.023101777 
0.011744061 0.9999252 -0.0034172444 
0.009798033 0.9998399 -0.014976874 
0.014006872 0.9987086 -0.048836168 
0.02623217 0.99650943 -0.079252414 
0.045339614 0.99459195 -0.09344109 
0.058638934 0.99502355 -0.080558166 
0.04577535 0.9977706 -0.04856441 
0.011888184 0.9995157 -0.028757485 
-0.021199446 0.9993144 -0.030352948 
-0.035487242 0.99857706 -0.039805897 
-0.02881875 0.9981866 -0.05284987 
-0.009011288 0.99807453 -0.061369598 
0.0138582 0.9986203 -0.050650243 
0.032097183 0.99922395 -0.022835951 
0.043654196 0.99901736 0.0076693245 
0.04205111 0.9983883 0.03811385 
0.032541316 0.9973398 0.06522636 
0.0030713845 0.99954784 -0.029911503 
-0.021818243 0.9994571 -0.02468619 
-0.04879464 0.9983912 -0.028883172 
-0.058342777 0.99738455 -0.04266428 
-0.05547506 0.9969873 -0.054211497 
-0.04827479 0.9969361 -0.061546527 
-0.0261493 0.99747646 -0.06600698 
0.014889629 0.99785364 -0.063768245 
0.048475657 0.9974702 -0.051993612 
0.045525756 0.9985489 -0.028766748 
0.010923298 0.9999134 -0.007347591 
-0.021710604 0.9997488 -0.0055643534 
-0.027090283 0.99938124 -0.022435585 
-0.0089281425 0.9994281 -0.03261598 
0.007357338 0.99979943 -0.018626388 
0.0044711246 0.99996746 -0.0067219594 
-0.003608977 0.9996968 -0.024356721 
0.0006329704 0.99826926 -0.05880658 
0.014352483 0.99625814 -0.08522847 
0.033289406 0.9952044 -0.091979094 
0.044556398 0.9965523 -0.06998872 
0.032415528 0.9989684 -0.03180417 
0.0052235755 0.9998946 -0.0135502275 
-0.016310275 0.9996179 -0.022322811 
-0.016000874 0.99904317 -0.04070472 
-0.0017065447 0.9980534 -0.062342685 