# OOMMF OVF 2.0
# Segment count: 1
# Begin: Segment
# Begin: Header
# Title: m
# meshtype: rectangular
# meshunit: m
# xmin: 0
# ymin: 0
# zmin: 0
# xmax: 1.6e-07
# ymax: 1.6e-07
# zmax: 5e-09
# valuedim: 3
# valuelabels: m_x m_y m_z
# valueunits: 1 1 1
# Desc: Total simulation time:  7.11320923200205e-11  s
# xbase: 2.5e-09
# ybase: 2.5e-09
# zbase: 2.5e-09
# xnodes: 32
# ynodes: 32
# znodes: 1
# xstepsize: 5e-09
# ystepsize: 5e-09
# zstepsize: 5e-09
# End: Header
# Begin: Data Text
-0.49655718 -0.70065624 0.5123591 
-0.6939375 -0.24996655 0.6752537 
-0.541575 0.6520437 0.53059924 
-0.31447577 0.91304815 0.25970772 
-0.19814569 0.97473466 0.10310481 
-0.14508606 0.9892986 0.015440553 
-0.13166656 0.9909006 -0.027927956 
-0.12041639 0.99247676 -0.022131719 
-0.09619239 0.99532115 0.009110923 
-0.07033652 0.99709433 0.029251948 
-0.05889474 0.9979943 0.023213398 
-0.029232984 0.9995168 0.010568408 
0.009763078 0.99971247 0.021906458 
-0.0055123 0.9998548 0.016127715 
-0.06521227 0.99739546 -0.030819183 
-0.09936569 0.99191535 -0.078932434 
-0.07155802 0.9948814 -0.07134755 
-0.032285895 0.99940896 -0.011808746 
-0.019667674 0.9995322 0.023421433 
0.003138456 0.9998924 0.014335495 
0.03810342 0.99927354 -0.00081508636 
0.060871992 0.9978669 -0.023587696 
0.077864856 0.99489427 -0.06420648 
0.09709828 0.99051833 -0.09718706 
0.11872873 0.98645633 -0.11317046 
0.1421689 0.9804068 -0.13634743 
0.15538545 0.96904224 -0.19186571 
0.14076911 0.9472349 -0.2879759 
0.09869257 0.9022053 -0.4198637 
0.03784954 0.8222837 -0.56781787 
-0.028832164 0.7319733 -0.6807231 
-0.081955746 0.6761884 -0.73215616 
-0.38447043 -0.72192585 0.5753308 
-0.5638711 -0.20397323 0.80027777 
-0.45059907 0.68881404 0.5678872 
-0.2741405 0.92675894 0.25683612 
-0.1787417 0.97945994 0.0933262 
-0.12932515 0.9914873 0.01510083 
-0.10599986 0.99419254 -0.018581674 
-0.07981926 0.9966305 -0.018886572 
-0.04784972 0.9988522 -0.0021776073 
-0.028729474 0.99952227 0.011402909 
-0.029537842 0.9994912 0.012035853 
-0.015859012 0.99983186 0.009212875 
0.0030473724 0.99976444 0.021491515 
-0.019071957 0.99958766 0.02146376 
-0.063344665 0.9979455 -0.009614455 
-0.0770826 0.9956845 -0.051678203 
-0.04606652 0.9971599 -0.059582684 
-0.017538551 0.9995698 -0.023508135 
-0.019310672 0.9998135 0.00047174963 
-0.015796963 0.9998501 -0.007088169 
0.005439718 0.9998828 -0.014310702 
0.026348252 0.9994788 -0.018652737 
0.043402687 0.9984505 -0.034825604 
0.061797332 0.9965176 -0.055980265 
0.08540192 0.9933485 -0.07723595 
0.11392661 0.98755884 -0.10838949 
0.1333683 0.9777181 -0.16211161 
0.12600431 0.9618508 -0.24282926 
0.09072206 0.93276346 -0.34888676 
0.036739577 0.8821069 -0.46961433 
-0.019671874 0.82178515 -0.5694578 
-0.060026925 0.77940124 -0.6236431 
-0.2797516 -0.6108713 0.7406587 
-0.3801307 0.005080806 0.92491883 
-0.31755397 0.76600367 0.55892575 
-0.21261732 0.94864404 0.23424003 
-0.15195474 0.985261 0.07855306 
-0.110450596 0.99381024 0.011917957 
-0.07628644 0.9970323 -0.010344917 
-0.03611912 0.9992214 -0.015878433 
0.0048359525 0.9997594 -0.021399846 
0.023365503 0.99949133 -0.021708906 
0.01649888 0.9998096 -0.010421723 
0.0125735905 0.9998877 0.008157058 
0.0040920237 0.99954253 0.02996559 
-0.031718817 0.9988403 0.036222097 
-0.0655453 0.99771404 0.01644941 
-0.059939787 0.9980032 -0.01992251 
-0.022703554 0.998989 -0.038801618 
0.0009928735 0.9997202 -0.023633422 
-0.0101786945 0.9999016 -0.009652777 
-0.026611136 0.99951893 -0.015934538 
-0.023968967 0.99954635 -0.0182398 
-0.009148597 0.99993235 -0.007194776 
0.005611896 0.99998426 0.00014268405 
0.021421462 0.9997186 -0.0101937475 
0.04509395 0.9982209 -0.039008424 
0.075162604 0.99406075 -0.07870178 
0.095084436 0.98728305 -0.12740122 
0.08907151 0.9782218 -0.18747965 
0.055136994 0.9633087 -0.2626714 
0.0035681606 0.9370187 -0.34926102 
-0.043621596 0.9041445 -0.4249939 
-0.07027975 0.87906384 -0.4714951 
-0.31479046 -0.09384313 0.94451076 
-0.31216663 0.45585644 0.8335149 
-0.23136821 0.8642774 0.44664678 
-0.17225458 0.9651029 0.19724326 
-0.14483748 0.98666734 0.07422836 
-0.10891849 0.9939093 0.016767038 
-0.06020841 0.99818236 0.002654466 
-0.01192793 0.9999173 -0.004799101 
0.02689392 0.9990856 -0.03323639 
0.048280895 0.9973821 -0.053832777 
0.051108513 0.9980467 -0.035926722 
0.042033467 0.99908394 0.008027588 
0.01409381 0.99879175 0.047079753 
-0.030472174 0.9979594 0.056110986 
-0.057366323 0.9977871 0.03361532 
-0.044052 0.9990286 -0.0011404604 
-0.009157425 0.9997971 -0.017938958 
0.010598008 0.9999311 -0.0050486163 
-0.0026510165 0.9999476 0.009893538 
-0.02512964 0.99967855 0.003379836 
-0.025510188 0.99966556 -0.00424253 
-0.010316621 0.9999177 0.007637089 
-0.0010268177 0.9997579 0.021983009 
0.0037172982 0.9999226 0.011872958 
0.016255323 0.9996229 -0.022134926 
0.033587217 0.9976516 -0.059694104 
0.03894072 0.9949368 -0.09265255 
0.025187042 0.99148226 -0.12778386 
-0.0073533896 0.9846037 -0.17464659 
-0.049586724 0.9714432 -0.23203284 
-0.08040022 0.95547384 -0.28391132 
-0.09175916 0.94372046 -0.31776074 
-0.20953728 0.6599736 0.721477 
-0.16421162 0.8298125 0.5333347 
-0.11032423 0.94454086 0.3093078 
-0.11035486 0.97701126 0.18240294 
-0.13592821 0.9850174 0.10613374 
-0.12189917 0.991211 0.051395185 
-0.062934235 0.99754906 0.030582631 
-0.0029361523 0.9997901 0.020278733 
0.03105915 0.9993589 -0.017810578 
0.04950921 0.99709785 -0.057835147 
0.06114505 0.9968184 -0.051130578 
0.05503635 0.9984843 0.00024696504 
0.022873458 0.99831545 0.05332085 
-0.018709123 0.99736327 0.07011693 
-0.038628303 0.9981931 0.04602662 
-0.027261415 0.9995777 0.0100646475 
-0.003396871 0.9999817 -0.005004045 
0.008867357 0.99990964 0.010109553 
-0.0028778762 0.9995498 0.029866092 
-0.01680897 0.9995314 0.02558202 
-0.005127761 0.9998813 0.014532956 
0.01327094 0.9996784 0.021611098 
0.011677112 0.9994902 0.029716646 
-0.00084246084 0.99989593 0.014406889 
-0.0059141675 0.9998571 -0.015833922 
-0.00789436 0.9992088 -0.03898015 
-0.019811947 0.9985373 -0.05030857 
-0.038062334 0.9973426 -0.06212133 
-0.061062194 0.9943725 -0.08657294 
-0.08553337 0.9887732 -0.1225222 
-0.09732245 0.9828305 -0.15675607 
-0.0967248 0.97895944 -0.17967412 
0.027288007 0.9655817 0.25866458 
0.044369828 0.980625 0.1908038 
0.05466291 0.9893425 0.13495713 
0.009948606 0.9923074 0.123398125 
-0.051920906 0.9920936 0.11425596 
-0.07084085 0.9930928 0.09353291 
-0.035716884 0.99671274 0.07271973 
0.013345994 0.99843913 0.054232508 
0.034470037 0.999205 0.020032093 
0.0374046 0.9990415 -0.022741273 
0.042470973 0.9985407 -0.033356972 
0.04029712 0.99918526 0.002249262 
0.020238878 0.99850786 0.050719675 
-0.0036039676 0.99751264 0.07039589 
-0.011238894 0.9987901 0.04787697 
-0.0029564116 0.9999472 0.009843564 
0.0074426425 0.9999344 -0.008718952 
0.006597833 0.99996597 0.0049660457 
-0.010685483 0.999592 0.026487513 
-0.01863457 0.9995128 0.025037412 
0.00423363 0.99984926 0.016840374 
0.023945821 0.9993866 0.02555772 
0.011714261 0.9993302 0.034668703 
-0.013369633 0.99955976 0.026487406 
-0.028719643 0.9995172 0.011859129 
-0.040861472 0.99914616 0.0061129397 
-0.05972553 0.9981705 0.009408204 
-0.07490662 0.9971357 0.010458165 
-0.084390745 0.9964328 0.00010459817 
-0.091531724 0.9955847 -0.020811718 
-0.09099672 0.99493295 -0.04275524 
-0.08640872 0.9945745 -0.057923626 
0.10866371 0.9938421 -0.021682758 
0.1140682 0.9927993 -0.036579765 
0.11937405 0.9922636 -0.034099173 
0.09423614 0.9955498 0.00052801357 
0.06425096 0.9967981 0.047596272 
0.045301117 0.9948242 0.09095526 
0.04057718 0.9944023 0.09755873 
0.047671225 0.99595064 0.07622225 
0.03744421 0.9979952 0.051026836 
0.013845234 0.9996826 0.021046171 
0.0050168745 0.9999853 0.0020843658 
0.008943972 0.9998384 0.015599237 
0.0113274595 0.9988977 0.04555483 
0.014978708 0.99813545 0.059172705 
0.021715745 0.998861 0.042488288 
0.024433633 0.9996294 0.012006669 
0.02048831 0.9997822 -0.003979012 
0.00771743 0.9999525 0.0059676925 
-0.01258923 0.99972755 0.019659137 
-0.0150081925 0.9998013 0.013122896 
0.010486106 0.9999362 0.004211159 
0.023367956 0.9996121 0.015154735 
0.001750025 0.9994405 0.03340163 
-0.027974393 0.9986633 0.043465532 
-0.044445563 0.99786764 0.04780046 
-0.057457816 0.9969437 0.052932646 
-0.07561396 0.99528706 0.06071539 
-0.08554546 0.99408925 0.06684722 
-0.0845042 0.9942202 0.0662227 
-0.0805094 0.99507576 0.057815272 
-0.07694482 0.99596846 0.046113398 
-0.07607023 0.99642885 0.036647532 
0.13445269 0.9875913 -0.08115368 
0.116676755 0.9898749 -0.08083578 
0.1057106 0.9910748 -0.08121598 
0.1033687 0.9931479 -0.05451711 
0.10959903 0.9939759 0.00027178842 
0.107850835 0.9922632 0.06149846 
0.0883341 0.9931046 0.07707518 
0.06891334 0.99615145 0.054161247 
0.0350965 0.9984917 0.04222208 
-0.011715999 0.9993443 0.034261778 
-0.031004885 0.9993146 0.020223422 
-0.017466752 0.99955213 0.024301905 
0.008067806 0.9990227 0.0434573 
0.03743272 0.99774724 0.055672593 
0.054731455 0.99713045 0.052301865 
0.050907396 0.99796516 0.038392495 
0.0358488 0.9989495 0.028545223 
0.017536772 0.99949944 0.026332842 
0.003465638 0.99982744 0.01825033 
0.008434012 0.99996334 -0.0015456879 
0.0247562 0.999579 -0.015133727 
0.020947117 0.99976665 -0.0052900296 
-0.0076255915 0.99977475 0.01980734 
-0.03440536 0.9984458 0.04384464 
-0.045891985 0.9972428 0.058315437 
-0.055913888 0.99626154 0.06585392 
-0.072670236 0.99463004 0.073689364 
-0.082233086 0.993228 0.082072616 
-0.07997098 0.9929983 0.086943224 
-0.07358043 0.99352896 0.08652203 
-0.071716264 0.99392503 0.08348623 
-0.07555847 0.9939164 0.080131546 
0.17060839 0.9849493 -0.027711067 
0.12575024 0.99188673 -0.0186492 
0.084998876 0.99576163 -0.03512873 
0.08499879 0.9959387 -0.029686887 
0.10309989 0.9945727 0.013988367 
0.1051093 0.9927247 0.058733888 
0.079126075 0.995391 0.05418457 
0.050565675 0.9986287 0.013561528 
0.01731311 0.9998473 0.0024041913 
-0.027476106 0.9995036 0.015419424 
-0.045012236 0.9987937 0.019623544 
-0.026926773 0.9992022 0.029494544 
0.008223206 0.99880207 0.048239034 
0.047956496 0.9966372 0.0664417 
0.06592786 0.9948466 0.07703076 
0.058136124 0.99550295 0.074794106 
0.04160416 0.9970311 0.06479361 
0.02791954 0.9986102 0.04470094 
0.026449833 0.99951196 0.016625868 
0.03497124 0.99935204 -0.008529106 
0.03532632 0.9991103 -0.023041043 
0.018718598 0.9996822 -0.01688632 
-0.00617086 0.9999474 0.008198126 
-0.02392131 0.9991681 0.033028163 
-0.029964607 0.99864984 0.042435177 
-0.03680487 0.9983361 0.044391524 
-0.05131557 0.99745697 0.04946175 
-0.06401884 0.9963745 0.056032058 
-0.069857694 0.9957175 0.06055291 
-0.07119605 0.9954379 0.06351827 
-0.075739935 0.9947441 0.06890416 
-0.08373287 0.99377817 0.07344386 
0.22604667 0.9557874 0.18807791 
0.1463933 0.97367644 0.17470907 
0.05561274 0.9946205 0.08739226 
0.03529301 0.998554 0.040552087 
0.052987445 0.99736834 0.04948563 
0.06172614 0.9962024 0.06140659 
0.039712578 0.9986834 0.032472387 
0.013523216 0.99963367 -0.023447556 
-0.0047946447 0.9992463 -0.03852223 
-0.028800765 0.9995176 -0.011621148 
-0.037559777 0.9992212 0.012102235 
-0.024008539 0.99922454 0.031209892 
0.004323822 0.9985485 0.053687014 
0.033511903 0.9961413 0.08111366 
0.040851112 0.9940471 0.10100244 
0.034459937 0.9940992 0.102856494 
0.02736962 0.9957658 0.08775722 
0.027635926 0.9982973 0.05137019 
0.04230323 0.9990236 0.012737248 
0.053903393 0.9985048 -0.009086019 
0.043455485 0.9988686 -0.019320447 
0.022371242 0.9996417 -0.014700836 
0.004638324 0.99997735 0.004884853 
-0.006473838 0.9998103 0.018374119 
-0.012495218 0.99979776 0.015760146 
-0.019689543 0.9997167 0.0133763775 
-0.03296326 0.9993343 0.015633583 
-0.04992037 0.99860823 0.017017 
-0.0665981 0.9975953 0.019191952 
-0.080574386 0.9964219 0.025521656 
-0.094884425 0.9947257 0.038958948 
-0.10721333 0.99296117 0.05033333 
0.37401295 0.65443975 0.6571324 
0.2273713 0.7962381 0.5606313 
0.047805946 0.9669216 0.25055364 
0.0010678219 0.9949798 0.10007061 
0.010478308 0.9978205 0.06514957 
0.012397828 0.99863666 0.050705887 
-0.011935973 0.9999187 0.004505315 
-0.022939026 0.99807453 -0.05762886 
-0.011077118 0.9979258 -0.06341537 
-0.012220098 0.9997827 -0.016891541 
-0.017495334 0.999646 0.020048099 
-0.010982133 0.9992099 0.038197465 
0.0048024734 0.99824345 0.059050255 
0.01151397 0.9959577 0.08908346 
0.0018263294 0.99419934 0.10753761 
-0.0034969028 0.99431086 0.10646045 
-0.002096438 0.9961118 0.088072695 
0.010369126 0.9987851 0.0481763 
0.03885073 0.9991831 0.011130092 
0.056266315 0.99840343 -0.004962463 
0.04603517 0.9988855 -0.01041757 
0.028008645 0.9995868 -0.00645725 
0.016355544 0.9998564 0.004442201 
0.0058945282 0.99997276 0.004460495 
-0.0068260366 0.999967 -0.0044106487 
-0.017841145 0.99982584 -0.0054864897 
-0.030536437 0.99951524 -0.0060735005 
-0.049565393 0.998714 -0.010658933 
-0.07263477 0.9973129 -0.009548422 
-0.09622589 0.995359 0.0011193174 
-0.11884278 0.992718 0.019684317 
-0.1346284 0.99031174 0.034027904 
0.2520777 -0.6005649 0.7588009 
0.1974656 -0.02707961 0.97993577 
-0.014752117 0.9158151 0.40132913 
-0.03838398 0.9928616 0.11292721 
-0.016871944 0.99925715 0.034649596 
-0.008517147 0.9999069 0.010659793 
-0.027546765 0.9994115 -0.020442424 
-0.029957643 0.99781746 -0.058846045 
-0.006568664 0.99888587 -0.046733275 
0.00044388528 0.9999864 0.005212711 
-0.00068626937 0.99939364 0.03481335 
0.00890067 0.9992133 0.038647704 
0.018137114 0.99855524 0.050582334 
0.0033426266 0.99721605 0.07449184 
-0.02649719 0.9960277 0.08501048 
-0.040935557 0.9955939 0.08436289 
-0.04174459 0.9961793 0.076709054 
-0.023932325 0.9983312 0.05255743 
0.014112974 0.9995341 0.027064823 
0.041190393 0.9990677 0.012927649 
0.04439894 0.999005 0.0042188247 
0.041216735 0.9991471 0.0025363693 
0.038399756 0.9992483 0.0053327535 
0.02378968 0.99971664 -0.00083517574 
-0.002032251 0.9999687 -0.007648435 
-0.022468612 0.9997293 -0.00604397 
-0.037485518 0.9992461 -0.010103532 
-0.054725297 0.99832445 -0.018799959 
-0.07459145 0.99708116 -0.016294405 
-0.09664774 0.9953185 0.000630964 
-0.11917952 0.992571 0.024475545 
-0.13450174 0.99004304 0.041523438 
0.0258412 -0.9207836 0.38921705 
-0.05658731 -0.6753958 0.73528117 
-0.16039236 0.92094415 0.3551567 
-0.07954555 0.9946203 0.06635457 
-0.026985507 0.9995811 -0.0104618985 
-0.0064495015 0.99972403 -0.022589654 
-0.012917391 0.99953526 -0.027613482 
-0.0061223763 0.9993977 -0.03415923 
0.013338953 0.99989706 -0.005296 
0.011686718 0.9992563 0.036747113 
0.009029042 0.9990772 0.041992623 
0.02347333 0.9994186 0.024726925 
0.02760185 0.9992833 0.025903573 
-0.006462838 0.9992194 0.038972147 
-0.052388486 0.99777293 0.041287545 
-0.072133236 0.9962117 0.04856969 
-0.06948052 0.99567366 0.061696023 
-0.047041476 0.9969892 0.061641768 
-0.010531495 0.9986707 0.050457373 
0.018698886 0.9992449 0.034060363 
0.03702366 0.99918365 0.016165823 
0.053624384 0.9985161 0.00948706 
0.062574096 0.99796516 0.0122557655 
0.045828145 0.9989037 0.009554272 
0.0098848445 0.99992126 0.0077409944 
-0.020891758 0.9997339 0.009781867 
-0.04134595 0.9991415 0.0026081153 
-0.056040894 0.99839777 -0.0078419605 
-0.065145425 0.9978714 -0.002969286 
-0.071947545 0.997226 0.019079728 
-0.0811502 0.9956145 0.046544135 
-0.088899076 0.9938774 0.0656101 
-0.06996518 -0.9725689 0.22184399 
-0.22198506 -0.84728116 0.4825323 
-0.2265976 0.9414005 0.24983744 
-0.086317554 0.9959751 0.024143636 
-0.015639653 0.9993731 -0.031764854 
0.015360328 0.9994856 -0.028155308 
0.019536512 0.99970084 -0.014715473 
0.027936058 0.99960864 -0.0014616061 
0.033150114 0.99898076 0.03063587 
0.016337968 0.9983768 0.054561373 
0.0057499805 0.99928933 0.037252236 
0.016101973 0.9998371 0.008167653 
0.010529363 0.9999358 0.0041882545 
-0.0322793 0.9994531 0.007174605 
-0.07168758 0.9974122 0.0054753427 
-0.076145545 0.99688464 0.02056773 
-0.061737496 0.99716944 0.04291455 
-0.043414194 0.997662 0.052780043 
-0.025701309 0.99842435 0.049883187 
-0.006619445 0.99942064 0.03338679 
0.020231498 0.99969435 0.014210432 
0.052255888 0.99855006 0.012929991 
0.07104473 0.9972398 0.021573273 
0.058316033 0.9980415 0.02263923 
0.024796559 0.9994381 0.022555156 
-0.008780443 0.9997059 0.02260675 
-0.035329156 0.99932563 0.010012407 
-0.051476914 0.99865264 -0.0065717157 
-0.049749248 0.9987412 -0.006419738 
-0.034429953 0.99936277 0.009421915 
-0.021149375 0.9994185 0.026747253 
-0.015587978 0.99917644 0.037463117 
-0.033277534 -0.9788539 0.20183629 
-0.1937935 -0.8691775 0.45494464 
-0.09944482 0.96120924 0.25726944 
-0.010297993 0.9996493 0.024399055 
0.042727627 0.9986123 -0.030791095 
0.06493738 0.9976567 -0.02154712 
0.058954112 0.9982574 -0.0025676885 
0.05139894 0.99857336 0.014468586 
0.034993444 0.99858713 0.039992034 
0.0019538563 0.9988675 0.047538847 
-0.015482794 0.9996856 0.019725552 
-0.005927939 0.9999734 -0.004237439 
-0.008492437 0.9999612 -0.0023679365 
-0.03565082 0.9993622 -0.0020606006 
-0.0498927 0.9987504 -0.0028973673 
-0.040155254 0.99914426 0.009920737 
-0.031516522 0.999333 0.018447561 
-0.03483599 0.9992175 0.018733095 
-0.04128078 0.9989615 0.01928456 
-0.034488443 0.99934644 0.010834259 
-0.008042693 0.99996465 0.0024630153 
0.027338745 0.9995463 0.012647918 
0.048482914 0.9984746 0.026418734 
0.044445764 0.9985587 0.030087618 
0.027197953 0.9991087 0.032281708 
0.00473398 0.99950826 0.030998176 
-0.021150112 0.9997216 0.010466745 
-0.039524347 0.99905705 -0.017968848 
-0.030634567 0.99895597 -0.03389039 
0.004730038 0.9989206 -0.046208676 
0.045320325 0.996507 -0.0701427 
0.07195214 0.9931354 -0.09222201 
0.2372605 -0.8793022 0.41295907 
0.09742512 -0.62077683 0.77791035 
0.11833067 0.94689375 0.29898193 
0.09760032 0.9948545 0.027181642 
0.11603504 0.9929452 -0.024409806 
0.11297227 0.99355394 -0.009373199 
0.08505323 0.99636626 0.0044942126 
0.057155404 0.998289 0.012347995 
0.0225113 0.9994609 0.023899399 
-0.01801496 0.9996987 0.016671795 
-0.032645646 0.99940723 -0.010934588 
-0.014840482 0.99973816 -0.017422747 
-0.00043450363 0.99999976 -0.0006253855 
-0.0028651136 0.99996936 0.0072853724 
-0.0042153555 0.9999362 0.010481632 
-0.0044244537 0.9999256 0.0113660935 
-0.01631419 0.999864 -0.0024309158 
-0.03441908 0.9993208 -0.013159211 
-0.045807388 0.99890286 -0.009745553 
-0.042122535 0.9990563 -0.010596332 
-0.022903534 0.9996913 -0.009634416 
0.0019814246 0.99997085 0.0073724976 
0.015609731 0.99959296 0.02388075 
0.018544719 0.99935806 0.030652795 
0.020569218 0.9991503 0.03571735 
0.016396763 0.9993075 0.03340265 
0.0010772138 0.99997205 0.0074114376 
-0.00929761 0.99947506 -0.031034643 
0.01466347 0.9972662 -0.07242494 
0.083994105 0.9861907 -0.14273424 
0.19088827 0.9451965 -0.26488745 
0.27395916 0.8923488 -0.35869202 
0.8082969 0.42564884 0.40679157 
0.56497175 0.6996096 0.43743962 
0.23800035 0.9646831 0.1128826 
0.15966588 0.98694605 -0.021080373 
0.1567847 0.98730373 -0.02549371 
0.13399455 0.9909487 0.008145327 
0.092491366 0.9955231 0.019475274 
0.05322043 0.99847937 0.014371519 
0.011806258 0.9999059 0.006993556 
-0.023816777 0.9996057 -0.0148705905 
-0.028159903 0.998836 -0.0391622 
-0.0010276177 0.9995432 -0.030206015 
0.025144627 0.99968344 0.0008909721 
0.029064076 0.99934214 0.021695387 
0.016034752 0.99945563 0.028833244 
-0.0046408554 0.9998296 0.017870484 
-0.025340375 0.9996541 -0.0070418464 
-0.032065917 0.9993067 -0.018917391 
-0.025304668 0.9995612 -0.0153976055 
-0.01711779 0.9997123 -0.016809199 
-0.010549387 0.99981093 -0.016335826 
-0.0062677283 0.99997896 -0.001695812 
-0.007963574 0.99987113 0.01394482 
-0.006444458 0.9997032 0.023492701 
0.0050310623 0.9994202 0.033675242 
0.017117117 0.9992015 0.036103804 
0.024357552 0.9996197 0.012930969 
0.04441751 0.99850136 -0.03196996 
0.11348419 0.9875782 -0.108676486 
0.2774663 0.9201645 -0.27624208 
0.5573473 0.58388865 -0.59028643 
0.67973644 0.19382171 -0.7073836 
0.20155884 0.9659748 0.16207069 
0.17321856 0.9768927 0.12520416 
0.12459252 0.99189836 0.024789874 
0.12316625 0.9923653 -0.006420128 
0.12193999 0.9922466 0.024026196 
0.092428215 0.9942262 0.0545098 
0.058497068 0.99711525 0.048366092 
0.028102908 0.999314 0.024122205 
-0.002367771 0.9999933 -0.0027923582 
-0.019446392 0.99925876 -0.03322551 
-0.00970974 0.99867994 -0.050439198 
0.021205077 0.9992204 -0.033303365 
0.045834914 0.9989402 0.0042055445 
0.0411243 0.9986479 0.031797733 
0.012540995 0.9993041 0.035129033 
-0.021474393 0.99964833 0.015563466 
-0.040384892 0.9991711 -0.0051264954 
-0.028351698 0.9995635 -0.008313068 
-0.002245388 0.9999894 -0.0040280283 
0.009619577 0.9999284 -0.0071119615 
0.0048902896 0.99993545 -0.010258022 
-0.007963681 0.9999626 -0.0033900638 
-0.02221439 0.99972945 0.0069010337 
-0.026241614 0.9994872 0.018350545 
-0.015212617 0.9991538 0.0382143 
0.0071592787 0.9985409 0.05352531 
0.03913137 0.9984019 0.04077437 
0.097267136 0.99525154 -0.003695044 
0.22916849 0.9683598 -0.098798 
0.5334196 0.7828734 -0.32027018 
0.7081199 -0.4244253 -0.5642956 
0.48992804 -0.7602313 -0.4266367 
-0.08517582 0.9963499 -0.0056685456 
-0.043712046 0.9990437 -0.0009936384 
-0.0025031853 0.9999942 0.0023000913 
0.022532739 0.99937594 0.027201941 
0.022077866 0.99800336 0.05917618 
0.011758556 0.9977459 0.066067316 
0.007858054 0.99908316 0.04208478 
-0.00087706983 0.99997824 0.0065415474 
-0.012020255 0.99962914 -0.024440143 
-0.009365493 0.9990144 -0.043390192 
0.010046651 0.99897885 -0.044051297 
0.039215285 0.9990172 -0.020663703 
0.056878623 0.9982504 0.016153531 
0.04745654 0.9981688 0.03751084 
0.018287487 0.99947375 0.026792921 
-0.01819945 0.99983406 0.0008613616 
-0.03902901 0.999197 -0.0090653645 
-0.024644816 0.99969614 0.0005022367 
0.0030187636 0.9999238 0.011974656 
0.010740766 0.9998314 0.01489885 
-0.0015213357 0.99993795 0.011037018 
-0.019826429 0.9997762 0.0073861773 
-0.033580467 0.9994085 0.0074137966 
-0.03516066 0.9992397 0.016847773 
-0.023165938 0.998741 0.044496253 
0.0045308503 0.99728763 0.0734638 
0.047602754 0.9958322 0.07779602 
0.122637786 0.99072003 0.05859962 
0.29015255 0.95670974 0.022763858 
0.684313 0.7277986 -0.04500068 
0.55610293 -0.81159216 -0.1790749 
0.27282146 -0.9528539 -0.13280822 
-0.13903777 0.98475575 -0.104520485 
-0.11193109 0.99113244 -0.07161052 
-0.07994697 0.99644834 -0.026441498 
-0.060327463 0.99805665 0.01560601 
-0.04726937 0.9981903 0.037172154 
-0.02622335 0.9991286 0.032471642 
-0.005275931 0.9999626 0.0068512675 
-0.0014093753 0.99957794 -0.02901725 
-0.0064163893 0.998612 -0.052278485 
-0.0029940146 0.99865395 -0.051781945 
0.015399368 0.99923676 -0.035897933 
0.042621225 0.99905926 -0.00800191 
0.0566787 0.99810076 0.024135832 
0.0500169 0.99810624 0.035809815 
0.031674176 0.9993348 0.018075516 
0.0025378915 0.99999297 -0.002792017 
-0.018862288 0.99982053 -0.0017440788 
-0.012466772 0.99981934 0.014350759 
0.0016202284 0.9995444 0.030143404 
-0.0025710615 0.999299 0.037350822 
-0.01953306 0.99926054 0.033120006 
-0.033502158 0.99919266 0.022171486 
-0.036424212 0.99924463 0.01354075 
-0.02754836 0.999439 0.019051624 
-0.009365251 0.9987315 0.04947584 
0.020564994 0.9960501 0.08637951 
0.059793495 0.9923774 0.10775822 
0.12813543 0.9832638 0.12951311 
0.28891227 0.936382 0.1992947 
0.6546386 0.6465167 0.39174545 
0.43942273 -0.88257736 0.16722727 
0.1654262 -0.9834983 0.07324947 
-0.11508424 0.98374814 -0.13782376 
-0.11349409 0.9888718 -0.09618585 
-0.10402654 0.9936691 -0.04242911 
-0.087836795 0.99613357 -0.001634054 
-0.060912523 0.9980265 0.015260539 
-0.025546093 0.99960667 0.011573529 
0.0020184729 0.9999455 -0.010251508 
0.007165485 0.99898285 -0.04452079 
-0.004212147 0.99799985 -0.06307575 
-0.008830037 0.9984826 -0.05435625 
0.009206046 0.99944097 -0.03214092 
0.0360614 0.999345 -0.0030356052 
0.04628373 0.9986761 0.022450281 
0.043076232 0.9987397 0.025756627 
0.038733806 0.99919623 0.0103290435 
0.025344154 0.99967605 0.002385065 
0.01134663 0.9998645 0.011930746 
0.00784136 0.9996229 0.026320916 
0.0002555976 0.9993056 0.037260596 
-0.019441918 0.9988741 0.0432742 
-0.039060004 0.9983348 0.04245031 
-0.04471733 0.9984241 0.033908915 
-0.032824226 0.999122 0.0260369 
-0.009999637 0.9993835 0.033656094 
0.017118251 0.9977965 0.06410445 
0.04797888 0.9942451 0.09578502 
0.076202534 0.9902705 0.11643733 
0.11971663 0.9805457 0.1555571 
0.22397003 0.9346148 0.27628347 
0.44819888 0.66613644 0.59613764 
0.3597915 -0.7111359 0.6040165 
0.09291049 -0.8968195 0.4325305 
-0.08690057 0.98812014 -0.12675579 
-0.09864559 0.9915233 -0.08456127 
-0.09821632 0.9945675 -0.03448319 
-0.08049785 0.9967548 0.00020238884 
-0.052139405 0.9985306 0.014768015 
-0.022140142 0.99969053 0.011349946 
0.00023315536 0.99996275 -0.008631545 
0.0033409763 0.9992466 -0.038668014 
-0.008513899 0.9985881 -0.05243481 
-0.008352088 0.9991567 -0.040200904 
0.013507562 0.9997854 -0.01570981 
0.03270275 0.9994218 0.0093150595 
0.034018885 0.9992173 0.020189155 
0.031280663 0.99946016 0.010044234 
0.035525598 0.9993606 -0.004037284 
0.038143195 0.9992722 -0.00047224973 
0.03490182 0.99924505 0.017067578 
0.019928478 0.99930704 0.03143885 
-0.011516531 0.99917406 0.038971543 
-0.042778116 0.99806696 0.045081563 
-0.055444498 0.99728674 0.04842641 
-0.043770235 0.9980937 0.043509454 
-0.013670597 0.99909645 0.040241864 
0.0205552 0.9983246 0.05408956 
0.051937826 0.9953035 0.08169148 
0.0804189 0.991943 0.09788718 
0.097972974 0.9899485 0.10199628 
0.11509248 0.9855454 0.12431488 
0.15117563 0.9681466 0.1995947 
0.21411356 0.8986358 0.38289574 
0.23004916 0.6975758 0.678576 
0.086318985 0.626996 0.77422553 
-0.06496208 0.99317646 -0.0968537 
-0.07542749 0.99556696 -0.056189124 
-0.071289 0.99738675 -0.011727699 
-0.05061537 0.99859303 0.015810916 
-0.027371053 0.99929434 0.025723254 
-0.010571877 0.99973357 0.02052215 
-0.0025454059 0.99999493 0.0019013166 
-0.008235177 0.9997122 -0.022534823 
-0.017235307 0.9993886 -0.030422224 
-0.006940534 0.99987465 -0.014234298 
0.015376776 0.99980587 0.012317955 
0.024288649 0.99922043 0.03112394 
0.020928742 0.9994504 0.025711639 
0.021195883 0.9997733 0.0020071084 
0.031104077 0.99942005 -0.013860114 
0.046761613 0.9988931 -0.0051043914 
0.05182231 0.99848485 0.018505383 
0.024421357 0.9990226 0.036843095 
-0.024870971 0.9986766 0.045017622 
-0.056690782 0.9971471 0.04983857 
-0.052674025 0.9973256 0.050668627 
-0.021936413 0.9988332 0.043024752 
0.017804846 0.99900776 0.040822826 
0.049910735 0.99707276 0.057921715 
0.07230387 0.99409634 0.080899164 
0.09035572 0.99225426 0.08524835 
0.09971132 0.99202734 0.07706858 
0.10246735 0.99155337 0.07951422 
0.10064481 0.98922646 0.10630955 
0.09015037 0.98144597 0.16922368 
0.060195636 0.96407545 0.25871792 
0.0051817503 0.9550469 0.2964097 
-0.040655844 0.99756044 -0.0567487 
-0.042708863 0.99890214 -0.019249475 
-0.028779408 0.9993556 0.021453662 
-0.0032458028 0.9989604 0.045471944 
0.014877489 0.9985512 0.051714834 
0.01669905 0.9989667 0.04226971 
0.0053721573 0.99978566 0.019996982 
-0.013770084 0.9998958 -0.0043458724 
-0.024253275 0.9996374 -0.011693494 
-0.012189002 0.9999181 0.0039108987 
0.004605896 0.99944925 0.03286406 
0.005968112 0.9986605 0.051397085 
0.0026761545 0.9993236 0.03667816 
0.008411251 0.99995923 0.003307233 
0.023640933 0.999599 -0.015588563 
0.04728418 0.99886453 -0.0058167037 
0.056364853 0.998173 0.021764003 
0.02210004 0.9986777 0.046417903 
-0.031350847 0.9978031 0.058363054 
-0.05460353 0.9966954 0.060139816 
-0.0344298 0.99794114 0.054112438 
0.0070878766 0.9991002 0.041815836 
0.044842944 0.99826986 0.038034193 
0.066313535 0.9964232 0.05237608 
0.073454455 0.9949259 0.0687537 
0.07673157 0.9946507 0.0691535 
0.079509184 0.9950833 0.059056606 
0.0782778 0.99562526 0.05101982 
0.06637807 0.9964385 0.052002512 
0.039533697 0.9971432 0.06436347 
0.0021776732 0.99650127 0.0835491 
-0.029316586 0.99527436 0.09257202 
-0.017326118 0.99980414 -0.009575156 
-0.01170038 0.9996811 0.022376956 
0.011053235 0.9982907 0.057389982 
0.04092702 0.99613833 0.07767621 
0.054963905 0.9950659 0.08260133 
0.043084566 0.996406 0.07292999 
0.014493171 0.99880296 0.046718672 
-0.012396583 0.9998204 0.014338707 
-0.023114031 0.9997235 -0.0043286784 
-0.016189573 0.9998674 0.0018253174 
-0.009853278 0.9994839 0.030579034 
-0.012679647 0.9986081 0.051196095 
-0.009652393 0.9993356 0.035145603 
0.00405322 0.9999854 0.0035754016 
0.020324508 0.99974203 -0.010138861 
0.039583463 0.9992124 0.0027982108 
0.044129565 0.9984677 0.03339067 
0.010048333 0.997977 0.06277749 
-0.034854513 0.9965815 0.074902944 
-0.045809902 0.9965044 0.06985995 
-0.01748812 0.99816954 0.057894256 
0.021642612 0.99868953 0.04637901 
0.051206443 0.9977722 0.042762764 
0.067470334 0.9965398 0.04854178 
0.06730549 0.99627656 0.053880457 
0.057664596 0.99685866 0.054292873 
0.0492283 0.9974913 0.050869707 
0.041665573 0.9981722 0.043775488 
0.032480963 0.9988186 0.036147587 
0.018556321 0.99945045 0.027468551 
-0.004633116 0.999783 0.020311387 
-0.02576198 0.9995644 0.014403046 
-0.0030314014 0.9996922 0.024625061 
0.006210502 0.9987813 0.04896353 
0.03376501 0.996598 0.07518198 
0.065454334 0.9937035 0.090935685 
0.07524722 0.99215627 0.0998197 
0.05166033 0.9936822 0.09963333 
0.00979002 0.9970671 0.07590429 
-0.019026976 0.99931 0.031900086 
-0.024265472 0.99967885 -0.007310849 
-0.017337494 0.99969625 -0.017516369 
-0.013819547 0.99989104 0.0052022003 
-0.011913937 0.9996151 0.025058059 
0.0003953203 0.9998837 0.015245985 
0.016721174 0.99985856 -0.0018352073 
0.024963684 0.9996858 -0.0022729663 
0.028549554 0.9994559 0.016514082 
0.021173922 0.9986018 0.04843694 
-0.011178969 0.9970164 0.07637645 
-0.044104412 0.9956042 0.082626835 
-0.043938853 0.9965256 0.07075437 
-0.0147137 0.9982106 0.057957463 
0.016526895 0.998524 0.05173809 
0.04140448 0.9979686 0.048417892 
0.061343443 0.9972045 0.04266592 
0.062216416 0.99738395 0.03680204 
0.04403519 0.99816996 0.04144439 
0.02318267 0.9984143 0.051299512 
0.007636844 0.99851066 0.054020952 
0.0060282564 0.9988472 0.047624275 
0.018408347 0.9993831 0.02991303 
0.02647332 0.99960685 0.009238471 
0.02334252 0.999711 -0.0057595684 