# OOMMF OVF 2.0
# Segment count: 1
# Begin: Segment
# Begin: Header
# Title: m
# meshtype: rectangular
# meshunit: m
# xmin: 0
# ymin: 0
# zmin: 0
# xmax: 1.6e-07
# ymax: 1.6e-07
# zmax: 5e-09
# valuedim: 3
# valuelabels: m_x m_y m_z
# valueunits: 1 1 1
# Desc: Total simulation time:  9.003484845601329e-11  s
# xbase: 2.5e-09
# ybase: 2.5e-09
# zbase: 2.5e-09
# xnodes: 32
# ynodes: 32
# znodes: 1
# xstepsize: 5e-09
# ystepsize: 5e-09
# zstepsize: 5e-09
# End: Header
# Begin: Data Text
0.3347033 -0.90869856 -0.24948108 
0.7651859 -0.55051756 -0.33379796 
0.7517175 0.6547658 0.07875665 
0.34067106 0.9228318 0.17979123 
0.12696896 0.96971214 0.20865604 
0.004577547 0.97804457 0.20834541 
-0.08396411 0.98278236 0.16458687 
-0.1369127 0.9861835 0.093258634 
-0.15460934 0.98763907 0.025790427 
-0.14700055 0.98877543 -0.026721522 
-0.106323645 0.9919472 -0.068819776 
-0.03858488 0.99559414 -0.08546061 
0.011433076 0.99808395 -0.060809784 
0.016992638 0.9997841 -0.011961883 
-0.003211639 0.99947727 0.032169107 
-0.023101274 0.99835676 0.052443907 
-0.032694403 0.9975672 0.061569657 
-0.048983663 0.9964459 0.06852889 
-0.059407678 0.9970747 0.04809177 
-0.03629222 0.9993156 0.0071479627 
0.012545249 0.9994287 -0.03138688 
0.07359897 0.9950497 -0.066777445 
0.12621453 0.9880227 -0.088775344 
0.14336844 0.98464555 -0.099593 
0.120832965 0.9843613 -0.12818834 
0.09473957 0.97549313 -0.19858941 
0.112627305 0.9468613 -0.3012788 
0.15021819 0.90539706 -0.39710295 
0.15046035 0.86156327 -0.48484075 
0.13213634 0.80435073 -0.5792753 
0.12722243 0.75276655 -0.645877 
0.11654637 0.73566896 -0.6672393 
0.23500781 -0.93180674 -0.2766 
0.6201194 -0.6729795 -0.40317562 
0.7890153 0.6140085 -0.021177882 
0.37245202 0.9213397 0.11141295 
0.15020658 0.97751296 0.14800817 
0.026808959 0.98732764 0.15641414 
-0.05260606 0.9905452 0.1267002 
-0.08794948 0.99383074 0.0675675 
-0.08949929 0.99593276 0.010385758 
-0.076923095 0.9966619 -0.027348578 
-0.055686347 0.9973343 -0.04715328 
-0.027651059 0.9983588 -0.050151728 
-0.0062747826 0.9995838 -0.02815997 
-0.0032695106 0.99996984 0.007049638 
-0.009240124 0.9994235 0.03266893 
-0.016161 0.999091 0.039445043 
-0.022910574 0.99893266 0.04010921 
-0.033529688 0.99853224 0.04253423 
-0.038276535 0.99873435 0.03262824 
-0.025388272 0.999599 0.0125473365 
0.002188242 0.99992746 -0.0118481275 
0.046227716 0.9981106 -0.040476874 
0.09549532 0.9936658 -0.05923627 
0.121567205 0.9902692 -0.06773897 
0.11201581 0.9897416 -0.0886792 
0.09451151 0.9854639 -0.14116842 
0.1114825 0.9700004 -0.21603443 
0.14450006 0.9487163 -0.28117117 
0.1446734 0.9304094 -0.3367613 
0.12650609 0.90802884 -0.3993494 
0.12055346 0.88649654 -0.4467559 
0.11558981 0.87832594 -0.46387777 
0.14572132 -0.9058001 -0.3978588 
0.5047808 -0.6314105 -0.5886571 
0.6784177 0.72372806 -0.12636131 
0.31652093 0.9481512 0.02870652 
0.14008804 0.98808545 0.0637384 
0.0457541 0.99566174 0.081021175 
-0.0072856774 0.99760383 0.06880092 
-0.017661778 0.9993501 0.031426623 
-0.005770835 0.9999795 -0.0027737007 
0.004245336 0.9998688 -0.01563258 
-0.0043309666 0.9999444 -0.009617581 
-0.02524007 0.9996805 -0.001359117 
-0.037829246 0.9992199 0.011339656 
-0.035955794 0.9990792 0.023409689 
-0.020675594 0.9994323 0.026600225 
-0.008805789 0.9997174 0.02208338 
-0.008019376 0.99986094 0.014624624 
-0.008592611 0.9999028 0.010981654 
-0.006700318 0.99989575 0.012795422 
-0.0064923805 0.9998536 0.015835444 
-0.0036957006 0.9999744 0.0061213574 
0.021192102 0.9996616 -0.015086717 
0.06684324 0.997371 -0.02798167 
0.10238886 0.9942942 -0.029925467 
0.10590056 0.99357647 -0.039885852 
0.095502876 0.9926991 -0.07367411 
0.10848593 0.98662734 -0.12164428 
0.13382246 0.9784814 -0.15705337 
0.13213111 0.97488236 -0.1792926 
0.11048333 0.9723714 -0.20563899 
0.096062675 0.9684405 -0.22998936 
0.08876407 0.96605664 -0.2426015 
0.24159698 0.96628594 -0.089008056 
0.297471 0.94927186 -0.10195133 
0.2396679 0.9707959 -0.010709354 
0.14863281 0.98888767 -0.0030879949 
0.09587897 0.995391 0.002011102 
0.05102375 0.9983284 0.027149055 
0.016930383 0.99920535 0.036085334 
0.011546418 0.99958384 0.026434815 
0.01861945 0.9996701 0.017697854 
0.019264894 0.9996607 0.017533597 
-0.0017442963 0.99971986 0.023607465 
-0.034787375 0.9991538 0.021946304 
-0.049192447 0.998665 0.015760284 
-0.034577645 0.9993481 0.010388565 
-0.005407626 0.999926 0.010905237 
0.0077879056 0.9999024 0.011597341 
0.0066222665 0.9999776 -0.000964115 
0.014218086 0.9997909 -0.014700498 
0.022581983 0.99972284 -0.0066626254 
0.01222402 0.99984854 0.012392295 
-0.0047055073 0.99992746 0.011097101 
0.006535752 0.9999626 -0.005666366 
0.04872876 0.99875 -0.011138861 
0.08757536 0.9961534 -0.0030220647 
0.097068876 0.99527454 -0.0025150543 
0.089718804 0.99566764 -0.024423925 
0.095807366 0.99372 -0.05780675 
0.10966631 0.9908427 -0.078765385 
0.10298147 0.99114513 -0.08382177 
0.07757186 0.9930825 -0.08814606 
0.055803835 0.99376094 -0.096566826 
0.04488955 0.99347425 -0.104852304 
0.024307411 0.99580777 0.08818209 
0.025983833 0.9978811 0.059651863 
0.026668698 0.99953455 0.014813645 
0.038923163 0.9985578 -0.03697813 
0.047072854 0.99798805 -0.04247322 
0.023809146 0.9996901 -0.0072642537 
-0.007834197 0.99978614 0.01913877 
-0.011961579 0.9995217 0.028521674 
-0.001080045 0.99947935 0.03224624 
0.006063757 0.9995753 0.028503168 
-0.0020194987 0.99974865 0.022328563 
-0.020202588 0.9997345 0.011079529 
-0.024340041 0.99969804 -0.0034022096 
-0.00637615 0.9999096 -0.011841587 
0.01675968 0.9998474 -0.0049438626 
0.022915803 0.99971443 0.006777269 
0.022070779 0.9997528 0.00267168 
0.032858092 0.99942917 -0.00786482 
0.039420485 0.9992222 0.0010671095 
0.021305783 0.9996251 0.017199459 
-0.002058549 0.99994344 0.010434629 
0.0063389484 0.99995136 -0.0075563546 
0.044425245 0.998976 -0.008572464 
0.07721531 0.99700135 0.0051103244 
0.082619496 0.99653405 0.009696709 
0.07204037 0.9973818 -0.006297125 
0.0669645 0.99728596 -0.03060404 
0.06628659 0.9968266 -0.044079237 
0.055459015 0.99762416 -0.040871806 
0.03310278 0.9989319 -0.032240834 
0.012303453 0.99944824 -0.030853301 
0.001221547 0.9993082 -0.037171774 
-0.048972264 0.9870212 0.15294114 
-0.057092454 0.9936998 0.09644354 
-0.04607288 0.99889463 0.009316531 
-0.011494139 0.99822485 -0.058438703 
0.0071498207 0.9980243 -0.06242239 
-0.018108038 0.9995897 -0.022195509 
-0.05024039 0.99871576 0.0065458235 
-0.04157429 0.9990199 0.015197189 
-0.011700617 0.99980676 0.015797194 
0.012533677 0.9999104 0.0047035012 
0.023276106 0.9997192 -0.0044472474 
0.0187722 0.9997879 -0.008475451 
0.015172921 0.99975026 -0.016411183 
0.02168125 0.99948627 -0.02360469 
0.027955966 0.9994621 -0.017147483 
0.027921995 0.9996085 0.001798543 
0.029154615 0.9994496 0.015827503 
0.036604885 0.9991375 0.019607404 
0.037671156 0.9989169 0.027312156 
0.019884212 0.9992595 0.03294296 
0.004020177 0.99981695 0.018706929 
0.016678015 0.9998603 -0.0011217069 
0.047416445 0.9988688 -0.0035635207 
0.066937245 0.99774075 0.005725406 
0.063208595 0.9979775 0.00675273 
0.048261076 0.9988234 -0.0047831833 
0.03452043 0.99927473 -0.016074477 
0.023515983 0.9995746 -0.017249882 
0.01266154 0.99990237 -0.005909914 
-0.00035978656 0.99996096 0.0088348575 
-0.011645346 0.9998735 0.010836879 
-0.017242022 0.99985117 0.00055959466 
-0.03158963 0.9916915 0.124699846 
-0.038447823 0.9969276 0.0682432 
-0.028795348 0.9995175 -0.011647155 
-0.0019611309 0.9982166 -0.059664488 
0.0050885207 0.99860126 -0.05262737 
-0.023235375 0.9995563 -0.018640678 
-0.046962295 0.99889165 -0.0031639508 
-0.026748171 0.99963635 -0.003442729 
0.0066900915 0.9999657 -0.0048973407 
0.02932403 0.99946487 -0.014498168 
0.044529926 0.99887574 -0.016263526 
0.045914214 0.998917 -0.0075381985 
0.041015744 0.9991109 -0.009756623 
0.03924065 0.9989621 -0.023126503 
0.03681528 0.99899256 -0.025663922 
0.034705985 0.9993898 -0.0039339894 
0.030097641 0.99926907 0.023569295 
0.024327524 0.99914086 0.033555027 
0.019784052 0.99915004 0.03616508 
0.0095104 0.9992143 0.038478144 
0.005495513 0.9995786 0.028503904 
0.020759232 0.99970376 0.012711383 
0.042808376 0.99905473 0.007567303 
0.05197767 0.9985954 0.010279667 
0.044551842 0.99897426 0.00810337 
0.031861663 0.99949014 0.002105461 
0.019294713 0.99980766 0.0035215977 
0.0080157425 0.9998792 0.0133237075 
0.0013470848 0.99959934 0.028275015 
-0.0022523592 0.9992072 0.039747287 
-0.0030496637 0.99945724 0.032803897 
-0.0016890203 0.99990004 0.014037123 
0.059688713 0.99753505 0.036894 
0.04375338 0.9989161 0.01588416 
0.029153137 0.9994023 -0.018582348 
0.024688466 0.99912125 -0.033870805 
0.0142175965 0.999599 -0.02448897 
-0.004666594 0.99994105 -0.009809136 
-0.009278017 0.9998936 -0.011260668 
0.012881894 0.99981916 -0.013989692 
0.028661255 0.99955136 -0.008704926 
0.034500152 0.9993397 -0.011403459 
0.04796094 0.9988229 -0.007251399 
0.057948116 0.99828875 0.0078466125 
0.059757553 0.9981705 0.009207329 
0.05513218 0.9984563 -0.0067487713 
0.046604108 0.9987336 -0.018955305 
0.04273774 0.9990532 -0.008146589 
0.03299199 0.99937147 0.012970565 
0.016746176 0.99967515 0.019214466 
0.006627152 0.99976 0.020885536 
2.7713446e-05 0.999614 0.0277849 
0.00048541333 0.9996505 0.026432866 
0.011181394 0.9997752 0.018019078 
0.023034781 0.99961936 0.015183727 
0.026402585 0.9995072 0.016983422 
0.022939812 0.9996136 0.015700929 
0.021912986 0.99964255 0.015317205 
0.021666778 0.9994755 0.024072142 
0.017387148 0.9991097 0.038439315 
0.01116978 0.9985844 0.052004844 
0.005739106 0.9984047 0.056171868 
0.0068266997 0.9991584 0.040448107 
0.012327819 0.9997819 0.016862238 
0.15744847 0.97569114 -0.152436 
0.13005748 0.98657614 -0.09875504 
0.081922464 0.9951585 -0.05429954 
0.04306202 0.9986035 -0.030604212 
0.019785993 0.9996376 -0.018254045 
0.015939474 0.99973285 -0.016738169 
0.032919794 0.99916 -0.0244064 
0.053652193 0.9983749 -0.019214679 
0.05163313 0.9986645 -0.0017869732 
0.043059237 0.999061 0.0047918004 
0.04918756 0.9987058 0.0129346475 
0.058146298 0.9979364 0.02723853 
0.06280125 0.9976859 0.026057012 
0.060543645 0.99812376 0.009143529 
0.054510493 0.9984886 -0.007004769 
0.052445572 0.9986002 -0.0068668495 
0.04005753 0.9991926 0.003117793 
0.019631851 0.9997981 0.0042743944 
0.008781152 0.999945 0.005750102 
0.0041739903 0.9998991 0.013584763 
0.001666618 0.99987507 0.015719287 
0.0018050815 0.9999003 0.014008329 
0.0025225354 0.99986583 0.01618869 
0.00051622256 0.9998043 0.019775383 
0.00018433899 0.99976736 0.021570794 
0.010192166 0.99959886 0.0264262 
0.023247177 0.99896336 0.039138693 
0.02596673 0.9980515 0.056736667 
0.016074272 0.99731964 0.07137993 
0.0024350851 0.9972603 0.073933676 
0.0003422794 0.9981744 0.060396004 
0.0074742152 0.9990527 0.042871848 
0.17596924 0.87490636 -0.4511914 
0.17252673 0.9403408 -0.29324687 
0.11898573 0.98205906 -0.1462963 
0.06679194 0.9952413 -0.0709487 
0.03885763 0.99845344 -0.03975984 
0.041888375 0.9986565 -0.030507626 
0.06397904 0.99756604 -0.02772805 
0.07565738 0.9970576 -0.012335979 
0.06503999 0.99784327 0.008865865 
0.053119164 0.9984324 0.017641881 
0.052197054 0.99829656 0.02606559 
0.053813912 0.99784225 0.037615012 
0.054861717 0.9978386 0.036173172 
0.052032765 0.998384 0.02284689 
0.050622985 0.9987024 0.005560265 
0.05624781 0.99841446 -0.0021803093 
0.04932337 0.9987786 0.0029200655 
0.031837072 0.99948466 0.0041041384 
0.023287015 0.99972767 0.001508829 
0.018443761 0.9998293 0.0011655209 
0.008525333 0.999962 0.0018481044 
-0.0020764768 0.99998146 0.0057373797 
-0.01034542 0.9998845 0.011142796 
-0.02001728 0.99968684 0.015024058 
-0.02333964 0.9995129 0.020720929 
-0.008408709 0.9994542 0.03194635 
0.014289485 0.99867386 0.04946172 
0.02484593 0.9970782 0.07223409 
0.016518593 0.9957696 0.090388075 
1.3654604e-05 0.9955041 0.09471977 
-0.0041402983 0.9960326 0.08889348 
0.0027801492 0.9966394 0.081866965 
0.18889406 0.6336426 -0.7502108 
0.24823351 0.82215494 -0.5122905 
0.20005985 0.9402081 -0.2756535 
0.13951544 0.9804752 -0.13857818 
0.09831983 0.99268466 -0.07007413 
0.08375851 0.99576867 -0.037806094 
0.08253616 0.99645424 -0.01633507 
0.07422301 0.99720126 0.008978408 
0.060458407 0.99772066 0.029974306 
0.0520772 0.9979983 0.035881165 
0.05107274 0.9980009 0.037225917 
0.05133708 0.99783564 0.04109232 
0.04721039 0.99813294 0.038755603 
0.038745735 0.99887806 0.02722854 
0.03984545 0.9991683 0.008670204 
0.052606646 0.99861485 -0.00095631764 
0.05058742 0.99870604 0.005217468 
0.037224967 0.9992867 0.0063545667 
0.033796072 0.9994276 -0.0015177362 
0.029771326 0.9995377 -0.0061703483 
0.013208211 0.99990714 -0.0033564817 
-0.005169542 0.99998504 0.0018274976 
-0.019775199 0.9997999 0.0030215287 
-0.03511588 0.9993725 0.004660028 
-0.04023242 0.99907887 0.01492621 
-0.02220233 0.9992087 0.03300063 
0.007167957 0.9983681 0.056654915 
0.026694085 0.99607146 0.08443429 
0.025961488 0.99455494 0.10092885 
0.0121121025 0.99494797 0.09965974 
0.0065823826 0.99552864 0.094231255 
0.01064252 0.9957046 0.09197394 
0.5049985 -0.009782601 -0.8630648 
0.5896911 0.4114985 -0.6949342 
0.44409764 0.77613854 -0.4476454 
0.30807278 0.9230667 -0.23030217 
0.20877899 0.97359765 -0.09229846 
0.1362839 0.99029577 -0.027225122 
0.08597857 0.99629486 0.0020877775 
0.054181896 0.99817085 0.026820391 
0.04015523 0.99812794 0.04613215 
0.038234767 0.9980621 0.04909476 
0.046517428 0.9979625 0.043670367 
0.054086097 0.99758726 0.04352436 
0.045074664 0.9981342 0.041187655 
0.028440055 0.9992546 0.026108325 
0.02995422 0.9995447 0.0036534772 
0.046764415 0.9988971 -0.004219802 
0.046640284 0.9988945 0.0058739567 
0.035017163 0.9993558 0.007864739 
0.034970887 0.9993882 -0.0005849893 
0.03199254 0.99948233 -0.00342387 
0.011465165 0.99993426 -0.00023522171 
-0.013205176 0.9999093 -0.0026796816 
-0.0315134 0.999449 -0.010427556 
-0.04316331 0.99903125 -0.00857362 
-0.041725803 0.99910855 0.0064154784 
-0.022732347 0.99938846 0.02656976 
0.003836108 0.9986051 0.05266189 
0.024808211 0.99635804 0.08158013 
0.02918942 0.99533296 0.09198085 
0.019355044 0.9962362 0.08449192 
0.01346683 0.99684924 0.078167975 
0.013289591 0.9968938 0.07762796 
0.47825733 -0.645958 -0.594986 
0.64726263 -0.34149456 -0.6814929 
0.5917173 0.37238386 -0.71498317 
0.43083614 0.7960739 -0.42502537 
0.29831868 0.9378074 -0.17754808 
0.18377316 0.98176926 -0.048545476 
0.0921551 0.995742 0.0022831194 
0.039677035 0.99886143 0.02648949 
0.02215084 0.99893594 0.040453076 
0.022998085 0.99887604 0.04144585 
0.038368646 0.9984336 0.040722534 
0.049821977 0.9974957 0.050201684 
0.037965205 0.997951 0.05150468 
0.02305779 0.9992736 0.030343844 
0.03392492 0.9994154 0.004244888 
0.056647196 0.998394 -0.00077082345 
0.05480983 0.9984499 0.009682117 
0.038612552 0.99921894 0.008401052 
0.03419217 0.99941516 0.00053391483 
0.02539136 0.9996773 0.0007723887 
-0.0025196976 0.99999523 0.0018071164 
-0.032045595 0.99945104 -0.00840612 
-0.04518877 0.9987653 -0.020640573 
-0.04130992 0.99899364 -0.017470745 
-0.031232927 0.9994959 -0.00569301 
-0.02255296 0.9997212 0.0069952724 
-0.013565822 0.99940753 0.031630315 
-0.0003750036 0.9981962 0.06003657 
0.0071982974 0.99759936 0.068874165 
0.007138109 0.99774235 0.06677742 
0.007770237 0.9978658 0.064835645 
0.007351012 0.99790007 0.06435489 
0.26648077 -0.82964313 -0.49059165 
0.38450912 -0.6500114 -0.65546775 
0.40842628 0.14905757 -0.9005386 
0.3087664 0.74377024 -0.5928484 
0.24302995 0.92434245 -0.29415554 
0.1712171 0.9785816 -0.114292204 
0.08817508 0.99575496 -0.026408758 
0.03235114 0.9994495 0.0073600686 
0.011391192 0.9998118 0.015704427 
0.008853566 0.99981385 0.017140824 
0.019595347 0.9993498 0.030268265 
0.026035588 0.99818385 0.054324593 
0.018842764 0.99805844 0.059367303 
0.021613905 0.99904466 0.037982598 
0.049891986 0.9986218 0.01628666 
0.07872712 0.9967995 0.0138857355 
0.07405974 0.9970821 0.01850371 
0.050300866 0.99866897 0.011413908 
0.034453794 0.9993952 0.004703758 
0.013602472 0.99987996 0.007432919 
-0.021511968 0.9997416 0.0073463107 
-0.048389945 0.9988017 -0.007327888 
-0.04672832 0.99858385 -0.025430098 
-0.027267637 0.99912953 -0.031569704 
-0.021802861 0.9992268 -0.03271962 
-0.03860058 0.9989861 -0.023168564 
-0.052299716 0.99857634 0.010494924 
-0.044333637 0.99817806 0.040926952 
-0.029794285 0.9983988 0.04808522 
-0.016556228 0.99865943 0.04904376 
-0.00699021 0.9990338 0.043389466 
-0.0021733071 0.99939734 0.034645464 
0.13778777 -0.6599722 -0.7385467 
0.22627382 -0.43123457 -0.87340534 
0.205938 0.47408062 -0.8560592 
0.1041581 0.86075246 -0.4982534 
0.09931269 0.950462 -0.294549 
0.10389932 0.98303396 -0.15116023 
0.06425274 0.99645984 -0.05421698 
0.021929607 0.99958515 -0.018674733 
0.0024601638 0.9997979 -0.019954024 
-0.0021778627 0.9998154 -0.019088749 
0.0020216468 0.9999799 0.0060052397 
0.003978171 0.9992344 0.038920764 
0.0068244324 0.9987756 0.048998393 
0.025367053 0.9988865 0.039777525 
0.059371956 0.99767214 0.033545557 
0.08420705 0.9957449 0.037435964 
0.07351439 0.99659085 0.0374471 
0.04525969 0.99861914 0.026672699 
0.025098171 0.9994558 0.021405041 
0.0010792818 0.99965525 0.026235413 
-0.031797986 0.99919 0.024666077 
-0.046702165 0.99890774 0.0014767407 
-0.029176911 0.9991123 -0.030385952 
-0.0089212 0.9986229 -0.051698573 
-0.025393786 0.9980113 -0.0576942 
-0.06700602 0.9972834 -0.030597256 
-0.0863939 0.99600446 0.022611624 
-0.07111501 0.9963408 0.047410637 
-0.05295949 0.9978647 0.03822727 
-0.04651734 0.9985911 0.025535746 
-0.049279116 0.9987796 0.0033268123 
-0.04243304 0.99877185 -0.025582885 
-0.19938566 0.35737923 -0.9124283 
-0.063588105 0.44470143 -0.8934189 
0.023590965 0.80284554 -0.5957202 
-0.009378976 0.94215024 -0.33505973 
0.0062732096 0.97187865 -0.23539884 
0.04690282 0.98826265 -0.14538625 
0.03887896 0.9971291 -0.0649779 
0.011232576 0.9990442 -0.042244133 
-0.0039464626 0.99847466 -0.05507113 
-0.0061986437 0.9984788 -0.054787707 
-0.0017599134 0.99971986 -0.023605157 
0.0016001629 0.99991983 0.012562379 
0.008962581 0.99950325 0.030214591 
0.022733755 0.99904263 0.037377656 
0.041896787 0.9981229 0.044671994 
0.054912996 0.9971366 0.05199264 
0.042680684 0.99782795 0.050179254 
0.021017369 0.9989581 0.040510915 
0.009775976 0.9992315 0.03795851 
-0.004554401 0.998923 0.046174604 
-0.026102146 0.99859226 0.046176285 
-0.027518582 0.9994867 0.016407715 
-0.003932008 0.9996449 -0.02635636 
0.0025843817 0.9985282 -0.054175388 
-0.033595093 0.9981689 -0.050301574 
-0.074384466 0.9972296 0.00033907013 
-0.07478235 0.9953923 0.06001431 
-0.0527539 0.9966103 0.06312721 
-0.060767952 0.9977051 0.029864041 
-0.11301734 0.99359053 0.0022330235 
-0.17381719 0.9838011 -0.043852527 
-0.16894811 0.97784877 -0.123565294 
-0.31777892 0.88730997 -0.3342119 
-0.2327285 0.8742834 -0.42598832 
-0.08961857 0.9382584 -0.33412546 
-0.07140202 0.97355396 -0.21701297 
-0.036517993 0.98230904 -0.18367226 
0.019956045 0.9924969 -0.12063018 
0.025671147 0.997956 -0.0585236 
0.008508399 0.9985339 -0.0534572 
0.0013222568 0.9971981 -0.07479404 
0.0059937756 0.99731153 -0.0730337 
0.012998956 0.9991218 -0.039835207 
0.014057337 0.9998931 -0.004030548 
0.010159632 0.9997906 0.017766584 
0.0020598427 0.99953145 0.03053982 
0.0014895471 0.9992955 0.037502483 
0.006117878 0.9991469 0.040843938 
-0.001314706 0.99928755 0.0377184 
-0.008653305 0.99944836 0.032065466 
-0.0028131579 0.9993361 0.036322933 
-0.0011691413 0.99851924 0.054388434 
-0.009292906 0.99800295 0.062480208 
-0.0016890168 0.99938774 0.03494938 
0.017602865 0.9998252 -0.0062988014 
0.0064846054 0.99951875 -0.030336382 
-0.035046287 0.9992236 -0.018004587 
-0.05650415 0.997751 0.036060624 
-0.03915222 0.995982 0.08054202 
-0.03480775 0.9973494 0.06389553 
-0.11204176 0.99331206 0.027892947 
-0.29204103 0.95636094 0.009258763 
-0.51832575 0.852046 -0.073186494 
-0.52981573 0.7925585 -0.30190453 
-0.29814538 0.9400038 -0.16583806 
-0.21548362 0.94283545 -0.25422058 
-0.09131704 0.9716381 -0.2181301 
-0.06985821 0.98402715 -0.16373876 
-0.027668959 0.98953915 -0.14158714 
0.016082712 0.996753 -0.07889858 
0.017012523 0.9991925 -0.036399685 
0.010142009 0.9988372 -0.047133986 
0.0151832355 0.9975294 -0.06859151 
0.026007883 0.9976401 -0.063546166 
0.030982686 0.9989006 -0.03518245 
0.023098314 0.9997094 -0.006898782 
0.0020170424 0.9999319 0.0115009 
-0.023326399 0.9995186 0.020456392 
-0.03467057 0.99917686 0.021064432 
-0.03620652 0.99920547 0.016662518 
-0.0380454 0.9992304 0.009548533 
-0.027681071 0.9995694 0.009743441 
-0.004051439 0.9996137 0.027496327 
0.009648208 0.99827963 0.057833537 
0.012104916 0.9974865 0.069816776 
0.025497742 0.9986783 0.044627607 
0.034889244 0.99934363 0.009757801 
0.0070875487 0.99994254 -0.008043165 
-0.033340562 0.99942374 0.0063803117 
-0.039101064 0.9979571 0.050525036 
-0.018963458 0.9966901 0.07905275 
-0.04311796 0.9970578 0.06337621 
-0.19320193 0.9798099 0.051436115 
-0.5427182 0.8365734 0.074846014 
-0.9995864 0.023465864 0.016625335 
-0.79658985 -0.51825225 -0.31122193 
-0.11992022 0.9854614 -0.120354064 
-0.065411486 0.98703676 -0.14655966 
-0.023257319 0.993363 -0.112645656 
-0.030033732 0.99471754 -0.09815789 
-0.010462198 0.99692947 -0.07760373 
0.0010132999 0.99954504 -0.030147478 
-0.0015289743 0.99990964 -0.013362751 
0.007173517 0.9995691 -0.028464809 
0.02512557 0.998931 -0.038803555 
0.03991131 0.99874395 -0.030294098 
0.040582094 0.999081 -0.013795115 
0.023802785 0.99971616 -0.0010291253 
-0.007692812 0.99995434 0.005681043 
-0.038497362 0.9992525 0.003540338 
-0.05215597 0.998626 -0.0050986293 
-0.0563897 0.9983129 -0.013843962 
-0.05282802 0.9984704 -0.016315473 
-0.030347204 0.9995385 -0.0014021168 
0.00044200316 0.99945956 0.032871783 
0.017565714 0.997497 0.068492465 
0.028232265 0.996861 0.07396797 
0.046021912 0.997922 0.04509763 
0.04615798 0.9988566 0.012445776 
0.009035581 0.99995786 -0.0016125141 
-0.02673426 0.99955153 0.013491184 
-0.024358787 0.99848557 0.049328208 
-0.0049210396 0.9974428 0.07130071 
-0.03325932 0.9975152 0.062105928 
-0.18332604 0.9814941 0.055325765 
-0.5488508 0.83215255 0.07927772 
-0.6903281 -0.7211576 0.058128864 
-0.43047968 -0.90090626 -0.055275533 
0.042879738 0.9990251 0.01049868 
0.045586243 0.9989346 0.0071776663 
0.021248607 0.9997595 0.0054371473 
-0.0058871247 0.99984944 -0.016329827 
-0.0126771955 0.9998292 -0.013451987 
-0.017374476 0.99983984 0.0042849537 
-0.010979897 0.9999263 0.005189929 
0.009646278 0.9999532 -0.0007686038 
0.03035026 0.9995356 0.0027497518 
0.04039167 0.99912137 0.011182491 
0.032143276 0.9994082 0.012253305 
0.007823104 0.9999585 0.004667662 
-0.023429235 0.9996912 -0.008291769 
-0.043920267 0.9987082 -0.025554685 
-0.046421252 0.99823886 -0.036937382 
-0.045756187 0.9983046 -0.0359771 
-0.039843597 0.99896437 -0.021971283 
-0.018732285 0.99978566 0.008819985 
0.0055017825 0.9987007 0.05066328 
0.02094588 0.99648684 0.081088305 
0.038553637 0.996353 0.07612094 
0.058176994 0.99740607 0.04238588 
0.05159826 0.99863255 0.008418149 
0.013466851 0.99990124 -0.0040237615 
-0.015850395 0.99978876 0.013082978 
-0.00994117 0.9989029 0.045762595 
0.012368212 0.9977744 0.065524004 
0.006674467 0.99843603 0.05550668 
-0.0663191 0.9975689 0.021403303 
-0.23392025 0.9700176 -0.065933734 
-0.115224816 -0.9717784 -0.20584023 
-0.08127119 -0.9914711 -0.101882905 
0.08846524 0.9895352 0.11399109 
0.06454904 0.99242437 0.10453353 
0.022869233 0.9970199 0.07367799 
-0.008407273 0.9993594 0.034788407 
-0.023387216 0.9995446 0.019069038 
-0.022321796 0.9996227 0.016009845 
-0.0032211747 0.99990577 0.013344935 
0.02137091 0.9996199 0.017419467 
0.034793813 0.9989465 0.029921757 
0.03125322 0.9987833 0.03814783 
0.010742676 0.9994792 0.030428668 
-0.018091286 0.9997905 0.009584139 
-0.040305555 0.9990028 -0.019209309 
-0.03929175 0.9981459 -0.04648803 
-0.020509336 0.9983028 -0.054506786 
-0.007113879 0.9991177 -0.04139177 
-0.0010258433 0.9998782 -0.015573113 
0.0067872377 0.9997904 0.019321129 
0.015343449 0.99826217 0.05689607 
0.02649341 0.9965493 0.07866105 
0.047289703 0.99650085 0.06891912 
0.06405496 0.99724376 0.037441034 
0.053469192 0.9985491 0.006385255 
0.021937033 0.9997516 -0.0039456366 
0.0011552913 0.9999204 0.0125627965 
0.008284552 0.99923086 0.03832844 
0.032980464 0.998195 0.05018983 
0.055494893 0.9979455 0.03201961 
0.080059625 0.9960784 -0.037661407 
0.19693868 0.9470227 -0.25369912 
0.50847745 -0.6011422 -0.6165052 
0.24993005 -0.880363 -0.40310776 
0.06307027 0.98818123 0.13971458 
0.036910243 0.99165803 0.12349873 
0.0023809094 0.99631685 0.08571596 
-0.021981124 0.99874496 0.045004886 
-0.028303364 0.9994104 0.019439897 
-0.0126092965 0.9998994 0.006503463 
0.018244809 0.9998248 0.004191683 
0.043807045 0.9988971 0.016901577 
0.04589287 0.998196 0.038711637 
0.024485609 0.99842775 0.050424457 
-0.009111119 0.9991321 0.040646113 
-0.040042013 0.99909526 0.014327874 
-0.05058827 0.998499 -0.020989971 
-0.028050516 0.9984352 -0.048378594 
0.011495553 0.9986878 -0.04990675 
0.038564652 0.99878395 -0.030716427 
0.04373301 0.999032 -0.0047420934 
0.03595622 0.99907506 0.023586217 
0.028299464 0.9983328 0.050306514 
0.03288717 0.9975611 0.061564792 
0.051272508 0.99740416 0.050557964 
0.06394586 0.997574 0.027517172 
0.05509714 0.99847156 0.004352795 
0.032323156 0.99947345 -0.0028428324 
0.015047552 0.9997923 0.013749154 
0.019616913 0.9992806 0.03245946 
0.04431902 0.9985324 0.031126836 
0.078517705 0.9969091 0.0027249556 
0.12874207 0.98886704 -0.07461579 
0.2552955 0.92446446 -0.2831781 
0.5166786 0.37349263 -0.77041966 
0.36345086 -0.21825238 -0.9056872 
0.012366749 0.99183315 0.12694193 
-0.006164258 0.9938356 0.110692196 
-0.026915409 0.9966103 0.0777399 
-0.038448878 0.99844605 0.04034045 
-0.03236846 0.9994393 0.008565548 
-0.0059481543 0.9999064 -0.0123231895 
0.03293405 0.99935985 -0.013975844 
0.060534224 0.99813527 0.007850086 
0.056085724 0.9977156 0.03765476 
0.023892796 0.9985122 0.049015906 
-0.015893089 0.9992567 0.035121024 
-0.045214538 0.9989474 0.0077276262 
-0.046489645 0.998688 -0.021475174 
-0.012515677 0.99927646 -0.035916053 
0.03511184 0.99900603 -0.027461613 
0.06750574 0.9976946 -0.0069617685 
0.072105534 0.9972978 0.0140657965 
0.05598644 0.997883 0.033091303 
0.038923707 0.99833494 0.042571753 
0.036987294 0.99870455 0.034945197 
0.04968143 0.99856204 0.02013979 
0.06097764 0.9980897 0.0099387355 
0.057544906 0.9983384 0.0030247325 
0.03706371 0.99929166 0.006521989 
0.014788062 0.9995427 0.026374258 
0.01603985 0.999251 0.03521701 
0.04237222 0.9990028 0.014069715 
0.07576225 0.9967648 -0.026836235 
0.100294985 0.99074584 -0.09145258 
0.116758056 0.9681755 -0.2213684 
0.09976668 0.87676346 -0.47045982 
-0.055555485 0.75139076 -0.65751475 
-0.040837698 0.9952271 0.088629894 
-0.049201526 0.99609995 0.07324117 
-0.0554167 0.9974054 0.045951385 
-0.05320238 0.998483 0.014183055 
-0.0364025 0.99918854 -0.017242007 
-0.0027527097 0.9992828 -0.037767574 
0.041219495 0.99865466 -0.031461854 
0.07027938 0.99752605 0.0016477045 
0.064125225 0.99733037 0.0349299 
0.031188477 0.99876046 0.038793113 
-0.005313462 0.9998366 0.01727765 
-0.02994541 0.99952585 -0.007172974 
-0.029012278 0.99935746 -0.0210485 
0.00019413706 0.9998409 -0.017837094 
0.03941362 0.9992189 -0.002874516 
0.0685041 0.99752873 0.015611393 
0.07462477 0.99662656 0.034156363 
0.05956124 0.99715483 0.046202436 
0.041917812 0.9984851 0.03564292 
0.037068285 0.9992911 0.0065848525 
0.046840776 0.9988528 -0.009952132 
0.062012482 0.99807256 -0.0023943777 
0.06276121 0.9979399 0.01330924 
0.034929 0.9988998 0.031290732 
0.0027611947 0.99865854 0.051706064 
0.0034474896 0.9988497 0.047829144 
0.033342946 0.9993825 0.011089655 
0.06572603 0.99737185 -0.030488858 
0.07566096 0.9947604 -0.068753876 
0.044551358 0.9909697 -0.12646812 
-0.039574917 0.9765769 -0.21149805 
-0.15042326 0.9518578 -0.2670949 
-0.07552503 0.99693704 0.02030925 
-0.07226713 0.99737334 0.004878386 
-0.06399461 0.9978133 -0.016536681 
-0.050852172 0.99806243 -0.035855792 
-0.029727511 0.9982259 -0.05158928 
0.002119118 0.9984871 -0.054946505 
0.039278965 0.99867517 -0.03324244 
0.061569497 0.99808776 0.0054955785 
0.055645987 0.9979728 0.03088628 
0.032433037 0.9992633 0.020521665 
0.010926452 0.9999043 -0.008489131 
-0.0023525453 0.9996463 -0.02649064 
-0.0029193298 0.9996998 -0.024327371 
0.009723632 0.9998861 -0.011549861 
0.02977219 0.99955654 -0.0005613237 
0.050927777 0.99860346 0.014055386 
0.06078031 0.997464 0.037031155 
0.053771432 0.9972487 0.05102723 
0.041117955 0.9986445 0.031916626 
0.033925068 0.9994051 -0.006226651 
0.040576655 0.9989923 -0.019179452 
0.05986594 0.9981985 0.0040074065 
0.06640611 0.9971806 0.03494593 
0.04073499 0.9978325 0.05168224 
0.0072769173 0.9985539 0.05326655 
0.0011867706 0.99945503 0.032990135 
0.02054084 0.999786 -0.0024758626 
0.04654486 0.9986013 -0.025079658 
0.06158341 0.99744016 -0.03634109 
0.038344085 0.9974775 -0.059737306 
-0.029177751 0.9952608 -0.09276134 
-0.10119116 0.9885564 -0.11187755 
-0.08257003 0.9960005 -0.034134507 
-0.06848435 0.99633116 -0.051325023 
-0.049616378 0.99642414 -0.06838962 
-0.03538985 0.9967097 -0.072919734 
-0.024232585 0.99741536 -0.06764112 
-0.008862817 0.99847937 -0.05441042 
0.010579282 0.9994491 -0.031458165 
0.024945585 0.9996727 -0.0056682876 
0.028401673 0.9995863 0.004559236 
0.028055312 0.9995576 -0.00987358 
0.029720638 0.9991356 -0.029062089 
0.027472848 0.9991435 -0.030943342 
0.018889578 0.9996266 -0.019751426 
0.010426933 0.9998167 -0.01605631 
0.012708299 0.9996703 -0.022312418 
0.029816868 0.99947155 -0.012946872 
0.047493577 0.99870825 0.018061414 
0.05281106 0.99776274 0.04099473 
0.046090506 0.9984923 0.029815618 
0.033375356 0.9994422 0.0012028537 
0.033297 0.9994433 -0.0020961012 
0.051626623 0.9983212 0.02626269 
0.06262253 0.99671537 0.051351372 
0.050439116 0.9976305 0.046791933 
0.028346512 0.9994251 0.018601729 
0.013854704 0.99979216 -0.014961546 
0.014548901 0.9992974 -0.034542806 
0.029340979 0.9991381 -0.029364755 
0.046410397 0.9987434 -0.018914908 
0.03759801 0.998983 -0.024887206 