# OOMMF OVF 2.0
# Segment count: 1
# Begin: Segment
# Begin: Header
# Title: m
# meshtype: rectangular
# meshunit: m
# xmin: 0
# ymin: 0
# zmin: 0
# xmax: 1.6e-07
# ymax: 1.6e-07
# zmax: 5e-09
# valuedim: 3
# valuelabels: m_x m_y m_z
# valueunits: 1 1 1
# Desc: Total simulation time:  7.711392575510867e-11  s
# xbase: 2.5e-09
# ybase: 2.5e-09
# zbase: 2.5e-09
# xnodes: 32
# ynodes: 32
# znodes: 1
# xstepsize: 5e-09
# ystepsize: 5e-09
# zstepsize: 5e-09
# End: Header
# Begin: Data Text
-0.25816518 -0.93233424 0.253187 
-0.45043546 -0.59610844 0.66465235 
-0.077669695 0.8102339 0.5809377 
0.052249603 0.96374464 0.26166067 
0.083427995 0.9813918 0.1729449 
0.09161287 0.9854292 0.14330523 
0.078497976 0.9918396 0.10046137 
0.0581326 0.996816 0.054577056 
0.048960518 0.9983968 0.028403964 
0.04101951 0.9991539 -0.002980454 
0.028635293 0.9989906 -0.034609184 
0.019692175 0.99944633 -0.0268192 
0.020702712 0.99954927 0.021741653 
0.01828175 0.99784404 0.06303257 
0.029559383 0.997632 0.062101066 
0.052249443 0.99702466 0.056674242 
0.041697487 0.99706393 0.0642254 
-0.0068984525 0.9985346 0.053676005 
-0.048771784 0.9987622 0.009768229 
-0.04818797 0.99839246 -0.02984313 
-0.034396168 0.99926656 -0.016831018 
-0.05067842 0.99868315 0.007978013 
-0.07800054 0.9969081 -0.009500628 
-0.104579985 0.9935701 -0.043378416 
-0.16233078 0.984791 -0.061931502 
-0.25282916 0.96465826 -0.074242316 
-0.35246214 0.93245465 -0.079365246 
-0.4506869 0.8911082 -0.05298632 
-0.5456306 0.8379687 0.009786746 
-0.6356952 0.7665451 0.09110607 
-0.7127151 0.68289226 0.16029808 
-0.75920224 0.6201954 0.19740768 
-0.20100856 -0.89668596 0.3943982 
-0.33952585 -0.35104352 0.87263435 
-0.011376632 0.8384516 0.5448574 
0.084049776 0.9669113 0.24086969 
0.10121075 0.98134786 0.16344093 
0.08865816 0.98565584 0.14360511 
0.053251006 0.99203354 0.11416539 
0.020799145 0.99710554 0.07313051 
0.012635296 0.99909467 0.040622666 
0.015065163 0.9997844 0.014292566 
0.0079284785 0.99992675 -0.009149121 
-0.0014834271 0.99978524 -0.020671839 
0.0044161207 0.99995977 -0.007815868 
0.015463768 0.9997259 0.017580587 
0.03550936 0.99889153 0.030901635 
0.054814897 0.9974015 0.046751656 
0.042460892 0.9970219 0.06437802 
0.0051032994 0.99847573 0.054956906 
-0.019731237 0.9997467 0.010835292 
-0.01053731 0.9994169 -0.032478802 
0.00091229664 0.99944645 -0.03325543 
-0.02171691 0.99957925 -0.019226152 
-0.058329966 0.99780977 -0.031198243 
-0.09301701 0.9943613 -0.050927058 
-0.14418864 0.9879751 -0.055812147 
-0.21402806 0.9754039 -0.052719545 
-0.29029572 0.9560535 -0.041111924 
-0.36637095 0.9304353 -0.007909866 
-0.4400366 0.8967096 0.04774603 
-0.51182044 0.8513394 0.11515732 
-0.5761164 0.79845023 0.17483509 
-0.61813617 0.75711006 0.21140492 
0.1173784 -0.7540701 0.6462202 
0.1720187 0.15611856 0.97264415 
0.19470601 0.882933 0.42722237 
0.18012536 0.968968 0.16928074 
0.17038453 0.97933066 0.108998455 
0.13691953 0.98446417 0.10992486 
0.07285132 0.9908832 0.11332868 
0.008869318 0.9952993 0.096440546 
-0.022265451 0.9977343 0.06348733 
-0.020247873 0.9991988 0.034522332 
-0.015180226 0.9997472 0.016588343 
-0.01710419 0.99982566 -0.007495651 
-0.008979667 0.9994996 -0.030329635 
0.009571119 0.99944466 -0.03192045 
0.03688736 0.9992334 -0.013113547 
0.053768907 0.99824464 0.024829965 
0.03876316 0.9975162 0.058813028 
0.010026882 0.9983965 0.0557119 
0.0004530421 0.99991083 0.013353692 
0.01752455 0.99931914 -0.032467894 
0.027875025 0.998609 -0.044755504 
0.003534597 0.99928266 -0.037705496 
-0.03605632 0.99850905 -0.040983137 
-0.070477426 0.9964062 -0.046984244 
-0.10578215 0.9935619 -0.04055655 
-0.14918043 0.98852724 -0.023645317 
-0.20021793 0.97974986 0.0017116935 
-0.2533332 0.96673477 0.03530311 
-0.30364802 0.94968796 0.076750614 
-0.35114506 0.92780983 0.12596124 
-0.39148623 0.90366346 0.17358255 
-0.4170363 0.88509524 0.20660906 
0.7832027 0.007510937 0.62172115 
0.5465485 0.68862015 0.47653663 
0.29992676 0.936388 0.18226765 
0.21679634 0.97500783 0.04857145 
0.19594723 0.9805923 0.0065853754 
0.16449788 0.9863079 0.011716308 
0.103343785 0.99378234 0.041433696 
0.033266764 0.9970836 0.06868578 
-0.01826969 0.9974865 0.06846268 
-0.030910213 0.9983366 0.048668627 
-0.020482402 0.99924827 0.032917198 
-0.013936022 0.9998781 0.0070467056 
-0.00963433 0.99935114 -0.03470647 
0.0034827848 0.9980408 -0.062469494 
0.028589278 0.9982943 -0.050904427 
0.042695235 0.9990828 -0.0032861903 
0.027874012 0.9986621 0.043555018 
0.004670515 0.9986904 0.050949086 
0.0013542617 0.9998642 0.016423952 
0.01993981 0.99950886 -0.024176475 
0.031948585 0.99877715 -0.037730094 
0.015333192 0.9993794 -0.031715114 
-0.014513292 0.99939007 -0.03176421 
-0.033855904 0.99876535 -0.03635413 
-0.044367835 0.99861544 -0.028263122 
-0.063819654 0.99794847 -0.0051012053 
-0.097860135 0.99492484 0.023410045 
-0.13521565 0.9897025 0.04696477 
-0.16777451 0.9833685 0.069557175 
-0.19567654 0.97536916 0.101811945 
-0.21451111 0.9666972 0.13957646 
-0.22292109 0.96015704 0.16853693 
0.49578092 0.8426502 0.21009973 
0.32775915 0.9325942 0.15113603 
0.1954601 0.97846687 0.06631705 
0.14415899 0.98954356 0.0046709557 
0.124316774 0.9911819 -0.04586747 
0.106243074 0.99159527 -0.07383338 
0.07499769 0.9956925 -0.05451468 
0.033839583 0.99940497 -0.0066868253 
-0.0037252256 0.9996071 0.027781934 
-0.016416945 0.9993816 0.031095931 
-0.005781886 0.99968094 0.024587423 
-0.0013049982 0.9999635 0.008448906 
-0.006811666 0.9995234 -0.030109571 
0.001290823 0.9977754 -0.06665341 
0.027809987 0.99761987 -0.06309776 
0.04491852 0.99877155 -0.02092599 
0.03365483 0.99919206 0.021967733 
0.008926008 0.99950254 0.030251684 
-0.0030482595 0.9999859 0.004358148 
0.006029421 0.9997215 -0.022816692 
0.019912038 0.9994262 -0.02740055 
0.018090373 0.9996914 -0.017020768 
0.0038915244 0.99985695 -0.016463876 
0.0016082149 0.9996581 -0.026097892 
0.01372942 0.9996231 -0.023775209 
0.013723085 0.99989605 -0.0044354657 
-0.007934952 0.99983287 0.016473904 
-0.033956252 0.9990831 0.02607489 
-0.05338291 0.9979771 0.034525555 
-0.06813974 0.99605304 0.056881327 
-0.07558437 0.99321455 0.088385254 
-0.076228455 0.9906299 0.11332095 
0.20016874 0.9758754 0.08717693 
0.14170086 0.9867449 0.07909197 
0.092984065 0.99446017 0.049020812 
0.07022094 0.99749005 0.0090913195 
0.046721224 0.9976323 -0.05046623 
0.03439842 0.99401927 -0.1036463 
0.024258163 0.99479145 -0.09900304 
0.006269672 0.9984662 -0.05500895 
-0.0067295115 0.9998786 -0.01406125 
-0.0027934131 0.9999962 -0.000136704 
0.015342939 0.9998753 -0.0037521825 
0.018860186 0.99975824 -0.011302302 
0.0030297937 0.99947715 -0.032190237 
0.0038819113 0.998337 -0.05751816 
0.030264897 0.99800014 -0.055495523 
0.05099308 0.9983198 -0.027518002 
0.044992644 0.99897957 -0.0039527155 
0.019976974 0.9997835 -0.0058298414 
-0.001310588 0.9997485 -0.022386005 
-0.0033843317 0.99957603 -0.028918434 
0.009637285 0.99979806 -0.017634999 
0.016730474 0.9998588 -0.0015876996 
0.010312082 0.9999384 -0.004116447 
0.018068481 0.99960923 -0.021327585 
0.04665617 0.9985628 -0.02637119 
0.06128702 0.99800324 -0.015277025 
0.04962841 0.9987434 -0.006976306 
0.032963872 0.99941355 -0.0092679905 
0.022887817 0.9997219 -0.005689683 
0.013793517 0.9998072 0.013978206 
0.005274776 0.99920887 0.039419588 
0.000505791 0.99832135 0.057916336 
0.014111812 0.99359846 0.11208498 
0.0014610842 0.9950395 0.099469304 
0.00228399 0.9979975 0.06321228 
0.007342748 0.9998296 0.016935788 
-0.007034204 0.9989922 -0.04433067 
-0.013741034 0.9951062 -0.0978515 
-0.012642114 0.9949407 -0.09966643 
-0.013962863 0.99751973 -0.06898886 
-0.0076572853 0.999351 -0.0352001 
0.0070566335 0.9997941 -0.019022854 
0.028271854 0.9992358 -0.026991243 
0.036029495 0.9987021 -0.03600076 
0.01946745 0.99898195 -0.040696736 
0.011006541 0.9988328 -0.047031835 
0.025873661 0.9987818 -0.04201731 
0.042134076 0.99873304 -0.027516466 
0.042476673 0.9988558 -0.021974 
0.02654898 0.9991628 -0.031129597 
0.007537054 0.999256 -0.037824683 
0.0022542663 0.9995603 -0.029568287 
0.013458974 0.99983615 -0.012114936 
0.019860119 0.99980277 -0.00010450183 
0.0117514 0.99989367 -0.008635134 
0.020500861 0.99939144 -0.028222192 
0.053175405 0.99796975 -0.035053674 
0.07285877 0.9968958 -0.029842427 
0.06781075 0.99723315 -0.0304587 
0.0586488 0.9975871 -0.037152767 
0.054800365 0.9979765 -0.032249346 
0.04829835 0.9987267 -0.014571991 
0.03689549 0.9993169 0.002156534 
0.026566215 0.9995721 0.012242672 
-0.046454236 0.99254435 0.112684056 
-0.04290372 0.9943947 0.09663546 
-0.025917208 0.99832994 0.0516308 
-0.009720172 0.9999429 0.0044467067 
-0.020829376 0.9992256 -0.033381723 
-0.03554626 0.9976451 -0.058659103 
-0.03852069 0.99732494 -0.06212334 
-0.027141323 0.99803436 -0.05648625 
-0.0017707301 0.9991604 -0.040930964 
0.021078 0.99937576 -0.028350214 
0.04179395 0.9983883 -0.03839569 
0.05494346 0.99736047 -0.047470234 
0.043673582 0.99809986 -0.043465022 
0.026013926 0.9987747 -0.04210011 
0.020989627 0.9989688 -0.040260937 
0.022090668 0.9991514 -0.03476485 
0.021139704 0.9991564 -0.03520714 
0.01386644 0.9991277 -0.039391927 
0.0047704447 0.9994418 -0.0330686 
0.0055001127 0.99984056 -0.016989969 
0.01709975 0.9998435 -0.0045603025 
0.020796752 0.99977124 -0.0050031925 
0.013374183 0.9997401 -0.018461345 
0.021758756 0.9992152 -0.03310182 
0.04781426 0.99821407 -0.03581362 
0.06437083 0.99740916 -0.032116286 
0.06425251 0.99733734 -0.034493983 
0.062113356 0.99733096 -0.03837808 
0.0638867 0.99748117 -0.030820733 
0.06197956 0.9979261 -0.017378705 
0.0537141 0.9985032 -0.010303298 
0.04346788 0.999026 -0.007595285 
-0.003144909 0.9975953 0.06923782 
-0.0019367211 0.99852234 0.054308303 
-0.00045944526 0.99997693 0.006773159 
0.0017709301 0.9994576 -0.03288578 
-0.0192627 0.9990209 -0.039830107 
-0.04567777 0.99836516 -0.03435963 
-0.04231438 0.99849725 -0.03482494 
-0.00487874 0.9993282 -0.036322277 
0.035951607 0.99914646 -0.020345911 
0.050136775 0.9986964 -0.009584585 
0.056821093 0.997897 -0.03119088 
0.070427135 0.9962123 -0.051000755 
0.06325464 0.9967425 -0.050032847 
0.036386803 0.9980092 -0.05151516 
0.014284874 0.9983316 -0.05594611 
0.003183943 0.9984675 -0.055251587 
-0.00037317106 0.9986271 -0.05238151 
-0.0030221415 0.9990989 -0.04233656 
-0.0038635004 0.9997835 -0.020446075 
0.0015597722 0.99999595 0.0023915335 
0.008787112 0.9999192 0.009195607 
0.009159256 0.9999545 -0.002670325 
0.010308913 0.9997713 -0.018741192 
0.02417885 0.9993687 -0.026030276 
0.043639798 0.998825 -0.021079417 
0.055850044 0.99835795 -0.012742053 
0.058916003 0.99821705 -0.009580908 
0.061943453 0.998046 -0.008210621 
0.07020536 0.997532 -0.0010839393 
0.07853915 0.996891 0.006315942 
0.08218485 0.9966005 0.0057689245 
0.07920181 0.9968517 0.0037134644 
0.16360205 0.98478156 0.058648452 
0.14486398 0.9883802 0.04603332 
0.08824271 0.9960584 -0.008992006 
0.046232913 0.9978769 -0.045872543 
0.0021414317 0.9993056 -0.037198227 
-0.03503801 0.999174 -0.020584123 
-0.022976454 0.9995573 -0.018905267 
0.031885777 0.99936694 -0.015783556 
0.076878846 0.9970231 0.005879682 
0.077570155 0.99682856 0.017770724 
0.062675625 0.9979608 -0.01208662 
0.061974023 0.9969918 -0.04654652 
0.051228967 0.9970413 -0.057309084 
0.02676707 0.9974857 -0.06562006 
0.011465026 0.9970875 -0.075399704 
0.009379917 0.99677455 -0.07970286 
0.012819832 0.9972084 -0.07356044 
0.01141112 0.9986239 -0.05118594 
0.0071588093 0.9998103 -0.018116888 
0.0023190023 0.99994385 0.010340084 
-0.008131695 0.9998538 0.01504783 
-0.014931425 0.9998852 -0.002586452 
-0.0027200242 0.9998429 -0.017517198 
0.01884553 0.9996961 -0.015893716 
0.03525552 0.99937767 -0.0011817645 
0.046209797 0.9987909 0.016778091 
0.0535849 0.9980717 0.03133266 
0.063049674 0.9972315 0.039422516 
0.08028238 0.9958228 0.043493718 
0.10177644 0.99391043 0.042232696 
0.11951244 0.99228555 0.03295831 
0.12544194 0.99177617 0.025383051 
0.54470825 0.81543255 0.19586396 
0.4700689 0.8619092 0.19012566 
0.2520365 0.96489483 0.07386168 
0.123770796 0.99230963 -0.0015789492 
0.048179902 0.9987941 -0.009448833 
0.002364325 0.9999884 -0.004196575 
0.013092032 0.99989974 -0.0053920564 
0.05818131 0.9983043 0.0019037037 
0.08365297 0.99627715 0.020832313 
0.06707005 0.99737406 0.027326886 
0.04030945 0.99918 -0.0038033673 
0.03463233 0.9987244 -0.036744088 
0.031000325 0.9984423 -0.046391524 
0.026133277 0.99799824 -0.057590038 
0.03265673 0.9965168 -0.07673209 
0.045827676 0.9947215 -0.09181013 
0.053306684 0.99481183 -0.08664787 
0.043349177 0.99722487 -0.060526457 
0.025767565 0.9992974 -0.027216936 
0.006096484 0.9999814 -6.9966527e-06 
-0.021199036 0.9997693 0.0034880568 
-0.034368664 0.99933565 -0.012128819 
-0.017873218 0.99961925 -0.021023827 
0.004203485 0.9998826 -0.014741126 
0.018265998 0.9998323 0.0013620377 
0.031308055 0.9991974 0.024988547 
0.044601995 0.99773926 0.05027099 
0.06054775 0.99607044 0.06463455 
0.084017254 0.9943321 0.065152794 
0.11127418 0.99234897 0.053493988 
0.13310581 0.99057937 0.032175753 
0.14117715 0.98985934 0.015734605 
0.6526471 -0.59253204 0.47218394 
0.7900404 -0.1287821 0.5993759 
0.43542314 0.83234525 0.34294027 
0.19244748 0.9741056 0.11866875 
0.08698048 0.99514073 0.046144415 
0.033870682 0.9992085 0.020862592 
0.031310484 0.9994879 0.006611726 
0.052381944 0.99861807 0.0042762463 
0.056174126 0.99832636 0.0137514025 
0.028278729 0.99938256 0.02085712 
0.00125762 0.99999845 0.0013018084 
0.009139291 0.9998007 -0.017754514 
0.03293899 0.9992733 -0.01918062 
0.054780193 0.99800336 -0.03144108 
0.07352977 0.99538803 -0.061613414 
0.087943815 0.99243975 -0.08561097 
0.08672368 0.99304503 -0.07962873 
0.061103098 0.9965707 -0.055797756 
0.03208333 0.9989808 -0.03174903 
0.005583273 0.9998744 -0.014836494 
-0.027056228 0.999525 -0.014752968 
-0.04228291 0.998856 -0.022336341 
-0.02965926 0.9992822 -0.023567438 
-0.012994031 0.9996985 -0.020831216 
-0.00049728295 0.9999217 -0.0125066405 
0.015357541 0.9998315 0.010059036 
0.03348073 0.9987126 0.03810882 
0.05249942 0.99711704 0.05478644 
0.073086634 0.9957378 0.05625462 
0.09160382 0.9949323 0.0414558 
0.10363139 0.99453807 0.012437001 
0.10654815 0.9942399 -0.0115993135 
0.19719665 -0.96723497 0.1599065 
0.35456508 -0.8625523 0.36095315 
0.3580846 0.7304815 0.58152586 
0.14883444 0.96062005 0.23464338 
0.060070846 0.993826 0.093281955 
0.019734057 0.99917936 0.03537263 
0.015314884 0.99984896 0.008223818 
0.021282788 0.99976957 -0.002831389 
0.012049829 0.9999266 -0.0012498894 
-0.015488538 0.9998769 0.0025241794 
-0.025341364 0.99962693 -0.010192181 
0.008269025 0.99988556 -0.012671989 
0.05303332 0.99859273 -5.8177804e-05 
0.07970889 0.9967745 -0.009335536 
0.09385542 0.99471414 -0.041652694 
0.10467203 0.99266917 -0.0604296 
0.09513372 0.99423176 -0.0495276 
0.06077852 0.9975598 -0.03435697 
0.030611774 0.9991883 -0.026186535 
0.006225935 0.9997162 -0.022995086 
-0.021991238 0.9994554 -0.024602128 
-0.03544994 0.9991394 -0.021538852 
-0.030463455 0.99938506 -0.017367141 
-0.022673262 0.9994922 -0.022387702 
-0.013509301 0.9996294 -0.02363854 
0.004507312 0.9999648 -0.007081072 
0.026651626 0.9995347 0.014830528 
0.04547078 0.99849474 0.03067304 
0.057768755 0.9975289 0.039986797 
0.06241468 0.99748015 0.033732656 
0.061718434 0.9980625 0.007884524 
0.059431825 0.9980875 -0.017006172 
0.052084174 -0.996566 0.06437091 
0.11554457 -0.9655846 0.2330151 
0.14647388 0.7926261 0.5918524 
0.03736485 0.9687492 0.24521206 
-0.012237161 0.9950499 0.098620936 
-0.032625705 0.99897313 0.031439 
-0.027811777 0.9996084 -0.003098928 
-0.017747886 0.9996543 -0.01939659 
-0.01879049 0.99957657 -0.022215873 
-0.02975338 0.9992913 -0.023061033 
-0.020044534 0.99932206 -0.030880172 
0.021716664 0.9996148 -0.017289838 
0.057757724 0.9982945 0.008498926 
0.06794529 0.997674 0.0054938714 
0.07725878 0.99687064 -0.01673635 
0.095897265 0.99516743 -0.02110651 
0.090878844 0.99582046 -0.009089555 
0.06041013 0.9981335 -0.008953327 
0.036204185 0.9991674 -0.018808667 
0.016364615 0.9994649 -0.028321637 
-0.0058460976 0.99948317 -0.031611998 
-0.020158771 0.9995478 -0.022317516 
-0.027546383 0.9994975 -0.015687972 
-0.031294852 0.9992116 -0.024431385 
-0.024257788 0.9992743 -0.029368075 
-0.0021074156 0.9998197 -0.018870752 
0.021917917 0.9997394 -0.0063768905 
0.03707703 0.9992933 0.006185118 
0.043323178 0.998866 0.019741645 
0.041260462 0.9990193 0.01606235 
0.03444149 0.9993327 -0.012164305 
0.031581894 0.99864674 -0.041320805 
0.095355615 -0.99533087 0.014957249 
0.15105927 -0.98085153 0.12292847 
0.07733134 0.9092744 0.40894994 
-0.024400908 0.98488784 0.17146617 
-0.066337265 0.9953699 0.06955794 
-0.080833636 0.99662375 0.014391481 
-0.069982454 0.9972864 -0.022854054 
-0.044179365 0.9981311 -0.042220965 
-0.021759773 0.99888223 -0.041961387 
-0.01288123 0.9991082 -0.040211953 
0.0034210903 0.9991919 -0.040049214 
0.03140148 0.9993855 -0.015579235 
0.040822014 0.9990731 0.013659767 
0.0315215 0.99941593 0.013202394 
0.04388994 0.9990325 0.0028095099 
0.07614286 0.99702495 0.011981705 
0.07995149 0.99652624 0.023306238 
0.057959255 0.99824 0.012558766 
0.04152273 0.9991077 -0.007725076 
0.027248377 0.9993218 -0.024769405 
0.0110922605 0.9994422 -0.031501174 
-0.00487797 0.99972993 -0.022725042 
-0.022364553 0.9996153 -0.01640739 
-0.03163445 0.9991773 -0.025379421 
-0.020441582 0.9993335 -0.030246308 
0.0051911674 0.99970937 -0.023545407 
0.023075348 0.99957377 -0.017884439 
0.02887495 0.9995239 -0.010877969 
0.029901857 0.999529 -0.0069043473 
0.021781089 0.9992394 -0.03234638 
0.005373512 0.995647 -0.093049645 
0.0006365787 0.9886396 -0.15030482 
0.39141408 -0.91890424 -0.04909181 
0.5023842 -0.8644945 0.016109291 
0.1589798 0.96619534 0.20295827 
-0.02208562 0.9955985 0.091081746 
-0.07935333 0.996297 0.033098254 
-0.096055225 0.99535084 -0.0070858416 
-0.0831271 0.99569577 -0.040986303 
-0.045715384 0.9973619 -0.05638692 
-0.0071946024 0.99878854 -0.04867997 
0.013500062 0.99908185 -0.040660813 
0.02738775 0.99910897 -0.032112177 
0.03543288 0.9993488 -0.006819446 
0.01970208 0.99970376 0.014291883 
-0.0032227274 0.99992514 0.011808018 
0.010948229 0.9998995 0.009010097 
0.046600435 0.99860173 0.024961011 
0.05517761 0.9978358 0.035766747 
0.04517895 0.9986568 0.02536963 
0.039953187 0.9991573 0.009410143 
0.033245046 0.9994356 -0.004836168 
0.023436844 0.9996308 -0.013748683 
0.009932971 0.9998741 -0.012381578 
-0.0069562984 0.99986833 -0.014659841 
-0.0129146 0.99950695 -0.028621191 
0.0001832103 0.99942476 -0.033912417 
0.018029554 0.99949616 -0.026123568 
0.022350796 0.99957293 -0.018831167 
0.020542126 0.9996845 -0.014454689 
0.01679355 0.9994332 -0.029177273 
-0.0072611365 0.99462247 -0.103311904 
-0.057312965 0.9653149 -0.2547202 
-0.08153162 0.9172284 -0.3899293 
0.6580202 0.7404779 -0.13675517 
0.50738823 0.8613301 -0.02583763 
0.120196015 0.9914751 0.050299276 
-0.023299817 0.9992382 0.031308934 
-0.08006452 0.99678886 0.0013588974 
-0.09838043 0.9946955 -0.030037798 
-0.08305367 0.9948362 -0.058336113 
-0.03720672 0.9972918 -0.06344219 
0.009728851 0.9990597 -0.042252146 
0.033128772 0.99914294 -0.024817532 
0.038769446 0.9991448 -0.014376537 
0.028291548 0.9995994 0.00083555584 
-0.0048815114 0.9999524 0.008451224 
-0.03251519 0.9994708 0.000942721 
-0.016578931 0.9998613 -0.0016010768 
0.01699758 0.99978846 0.01158876 
0.031191763 0.99928284 0.021470755 
0.03500068 0.99911475 0.023339324 
0.037133653 0.99895865 0.026509942 
0.032610003 0.99918246 0.02389752 
0.027491614 0.99952334 0.014049544 
0.02420085 0.99969125 0.0056416388 
0.020360045 0.99976397 -0.007589191 
0.020422097 0.9993804 -0.028666116 
0.025263852 0.99899995 -0.036890645 
0.02657837 0.9992241 -0.029066237 
0.022895195 0.9995402 -0.019878378 
0.027138595 0.999441 -0.019525422 
0.03316513 0.99767315 -0.059567884 
0.009567781 0.97466034 -0.22348541 
-0.09697699 0.797109 -0.5959974 
-0.17188303 0.5229361 -0.8348618 
0.26193413 0.96160334 -0.081912726 
0.1973431 0.9799628 -0.026993342 
0.069142 0.99756014 0.009662706 
-0.016466742 0.9998609 0.0026692722 
-0.069278784 0.99730664 -0.024080735 
-0.08985739 0.9945391 -0.053083725 
-0.07344726 0.9948481 -0.06987714 
-0.027807951 0.9981033 -0.054923616 
0.013590911 0.99974334 -0.018129062 
0.03028188 0.99953455 0.0037015395 
0.026656289 0.99961346 0.007898164 
0.0032261969 0.99996644 0.007531607 
-0.03491912 0.99939007 -0.00050391024 
-0.05192317 0.99851316 -0.016594987 
-0.025413735 0.9993088 -0.027132394 
0.010581411 0.99963766 -0.024750518 
0.02916109 0.99947023 -0.014456149 
0.03413079 0.99939543 0.0066250325 
0.027897304 0.99909914 0.031981304 
0.01724719 0.99905115 0.039992064 
0.017526686 0.9993745 0.030715646 
0.0321018 0.9992977 0.019332338 
0.049566373 0.9987673 0.0026662983 
0.057415508 0.9981036 -0.022194687 
0.052685767 0.9979408 -0.036585875 
0.040859878 0.9984828 -0.036914885 
0.03765948 0.99871635 -0.033874393 
0.063775145 0.9971574 -0.04012336 
0.1272164 0.98581046 -0.10951657 
0.22354005 0.8831986 -0.41229862 
0.13397527 -0.057358272 -0.9893234 
0.049055133 -0.6589108 -0.7506198 
0.16939078 0.9854113 -0.016471133 
0.13800265 0.9903583 0.012073793 
0.0720146 0.99709904 0.02464955 
0.0030468153 0.9999926 0.0023648157 
-0.050411116 0.99800575 -0.03799026 
-0.07071946 0.9951685 -0.06810672 
-0.051607165 0.99627143 -0.06913787 
-0.01321582 0.9992823 -0.035500105 
0.01156348 0.99991214 0.006484365 
0.016179794 0.99955446 0.025084468 
0.0052899877 0.9997534 0.02157109 
-0.023551026 0.99968964 0.008125473 
-0.05518511 0.998419 -0.010685399 
-0.053247523 0.99808425 -0.031505655 
-0.014496736 0.998698 -0.04891151 
0.022260778 0.9982746 -0.054333955 
0.035132594 0.99855006 -0.040786576 
0.028353957 0.99955624 -0.009134463 
0.011735542 0.9996749 0.022635495 
0.00077596545 0.99944425 0.033327367 
0.010309351 0.99956304 0.027706672 
0.041925617 0.99890924 0.020558588 
0.077155896 0.9970023 0.005780757 
0.090319045 0.9957042 -0.020387882 
0.079463944 0.9959427 -0.042233087 
0.061579626 0.99662083 -0.05435793 
0.06490463 0.99620265 -0.0580317 
0.12723723 0.989831 -0.06360363 
0.29471055 0.9461484 -0.13397364 
0.60978407 0.6663741 -0.42907926 
0.42330998 -0.62076837 -0.6598905 
0.1989188 -0.9027612 -0.3813835 
0.1665377 0.9811317 0.09821329 
0.13171814 0.98694056 0.092729114 
0.07586563 0.9952595 0.060851257 
0.02286599 0.99973077 0.0039668246 
-0.013640988 0.99865514 -0.050018907 
-0.021112645 0.9973944 -0.06898329 
0.00051292387 0.99893266 -0.046189886 
0.019844899 0.9998017 -0.0016843063 
0.017062342 0.99941796 0.02953966 
0.0050847344 0.9994105 0.03395504 
-0.012857602 0.9997179 0.019971818 
-0.04185956 0.99912137 -0.0020660514 
-0.061670486 0.99787813 -0.020880131 
-0.0448908 0.9984169 -0.03389126 
-0.0027861786 0.99892074 -0.046365507 
0.02862862 0.9984075 -0.04861032 
0.033340983 0.99889547 -0.03311127 
0.022793066 0.9996781 -0.01114762 
0.013160617 0.9999057 0.0039239456 
0.012893828 0.9998932 0.0068884282 
0.02739943 0.9996131 0.0047952067 
0.059575766 0.99821633 0.0038625095 
0.09355491 0.9955924 -0.0065812017 
0.10285007 0.9942788 -0.028839123 
0.09019182 0.99457395 -0.051847816 
0.07724997 0.9944601 -0.07128537 
0.09710651 0.99199045 -0.080780074 
0.19895916 0.97576576 -0.09108461 
0.44549492 0.87963694 -0.16665342 
0.82332784 0.40124106 -0.40141878 
0.62583053 -0.64520997 -0.43822393 
0.3734076 -0.8969624 -0.23669672 
0.123045035 0.97277427 0.19639307 
0.0946961 0.98314613 0.15638542 
0.062885076 0.9944539 0.084303096 
0.04457926 0.99897695 0.0075923544 
0.033834144 0.9987829 -0.03589114 
0.032427102 0.99910986 -0.026982257 
0.04010602 0.99910206 0.013659802 
0.033497587 0.9983874 0.045831513 
0.013312827 0.9987056 0.04909176 
-0.0031595011 0.9994052 0.034342602 
-0.020965954 0.9997278 0.010242402 
-0.04278556 0.99891937 -0.018154832 
-0.05109059 0.99811316 -0.034056176 
-0.03377339 0.99879605 -0.035579525 
-0.0051869974 0.99942356 -0.033550464 
0.012312607 0.9996528 -0.023295486 
0.014581323 0.9998481 -0.009545276 
0.017378096 0.9998097 -0.0088688675 
0.030356035 0.99936926 -0.018431742 
0.04495838 0.9986844 -0.024664816 
0.057673734 0.99809635 -0.021853115 
0.07512998 0.9970556 -0.015349926 
0.09035937 0.99573445 -0.018661888 
0.08689205 0.9956967 -0.032215435 
0.07305958 0.99600667 -0.05131211 
0.06847673 0.99500966 -0.07257208 
0.10085704 0.9915039 -0.082145855 
0.21155831 0.97336763 -0.088309914 
0.45166528 0.88141674 -0.13821329 
0.82095915 0.5037458 -0.26882386 
0.9095584 -0.34008425 -0.23884346 
0.66091466 -0.7504336 0.006428536 
0.05594232 0.97723895 0.20463273 
0.042973053 0.9873004 0.15294233 
0.037421785 0.99658114 0.07365859 
0.043610666 0.9990281 0.006406378 
0.041994058 0.9990071 -0.0148804225 
0.033234756 0.9993869 0.011014864 
0.026059346 0.9985694 0.046690788 
0.01392104 0.9983062 0.056489125 
0.002411857 0.99911255 0.042050745 
-0.0040376037 0.9997769 0.020731973 
-0.013555448 0.9998973 -0.0046463674 
-0.023087086 0.9992732 -0.030336095 
-0.024042096 0.9988112 -0.042404782 
-0.015801525 0.9991007 -0.03934742 
-0.008356676 0.9996579 -0.024782531 
-0.007618353 0.99996877 -0.0020935435 
-0.004503093 0.9999573 0.008070899 
0.014923644 0.9998505 -0.008738114 
0.04757691 0.99823403 -0.035571873 
0.07327159 0.99622566 -0.046537366 
0.08427247 0.99574554 -0.037268292 
0.084955 0.9960913 -0.024184693 
0.07545635 0.99685264 -0.024312617 
0.055181406 0.99785453 -0.035233438 
0.037463948 0.9979273 -0.05232223 
0.037161045 0.99688494 -0.069567114 
0.07179927 0.99513996 -0.06738999 
0.16424876 0.98533744 -0.046180036 
0.34278938 0.93910384 -0.02407416 
0.62379986 0.7810862 0.027896488 
0.8825001 0.36874926 0.2919205 
0.7365924 -0.13764541 0.6621823 
0.026385892 0.99007064 0.13807182 
0.018415526 0.99543124 0.09368926 
0.018696634 0.999369 0.030199029 
0.027181108 0.9994961 -0.01639438 
0.024319876 0.9993924 -0.024969675 
0.01230038 0.99991894 -0.003296247 
0.005775864 0.99980974 0.018631948 
0.0056619723 0.99967164 0.024992948 
0.0068688598 0.9997576 0.020921016 
0.003523094 0.9999699 0.006913448 
-0.0035413844 0.99989206 -0.014262396 
-0.0061773187 0.9994436 -0.032776926 
-0.00233038 0.99902445 -0.04409925 
0.0037999875 0.9990296 -0.043882027 
0.0021585214 0.99971783 -0.023657316 
-0.0062675537 0.9999702 0.004526217 
-0.0036259962 0.99993724 0.010599247 
0.02037108 0.9997032 -0.0133656645 
0.05558582 0.99745995 -0.044542488 
0.08464614 0.9949545 -0.053857617 
0.09660801 0.994552 -0.0391561 
0.08597868 0.9959748 -0.025339426 
0.057962466 0.99788 -0.029595517 
0.025452424 0.99870825 -0.043976866 
0.003352779 0.9981932 -0.059993383 
0.00395023 0.99747205 -0.07095116 
0.034143463 0.99768853 -0.05875172 
0.09355766 0.995407 -0.02029791 
0.18366055 0.9825496 0.029410953 
0.297652 0.94956124 0.0986752 
0.38475782 0.8897055 0.24573514 
0.35794154 0.8279926 0.43163195 
0.02923121 0.9979006 0.05779273 
0.0161945 0.9995526 0.025149183 
0.008439468 0.99978375 -0.019005246 
0.010417558 0.9988204 -0.047425743 
0.009320838 0.9986535 -0.051034693 
0.006586883 0.9992207 -0.03891894 
0.0128970845 0.9996511 -0.023055451 
0.024475208 0.9996817 -0.0061193383 
0.027855664 0.9995937 0.006048116 
0.015408152 0.9998809 -0.00094702095 
-0.001988979 0.9997809 -0.020841507 
-0.008369522 0.9992388 -0.038103957 
0.0007133739 0.9987469 -0.050043512 
0.014128648 0.99879116 -0.047081802 
0.01263917 0.99968237 -0.021804862 
0.001581585 0.99999255 0.003520165 
0.0059522493 0.9999786 0.0027270268 
0.030079387 0.99931186 -0.02170688 
0.061430674 0.9969354 -0.048436698 
0.090194196 0.99451274 -0.05300542 
0.09998761 0.99434084 -0.03590186 
0.079156384 0.99656713 -0.024252856 
0.041562904 0.99861264 -0.032331795 
0.007466804 0.99868655 -0.050689336 
-0.011827481 0.9976513 -0.06746909 
-0.006807389 0.9971542 -0.07508256 
0.020510098 0.997821 -0.062710494 
0.054793194 0.9980556 -0.029714782 
0.08867132 0.99601865 0.0091785155 
0.11954484 0.9916726 0.047902655 
0.13305032 0.9865513 0.094943635 
0.11605189 0.98307806 0.14173776 
0.026765648 0.9996401 -0.0018626924 
0.0062408517 0.9996748 -0.024726776 
-0.010695578 0.99849194 -0.05384729 
-0.013138382 0.997501 -0.06942116 
-0.009015565 0.99745804 -0.07068359 
0.0016094695 0.99782336 -0.06592434 
0.02289441 0.99834615 -0.052734908 
0.045666542 0.9985692 -0.027826913 
0.05336646 0.9985649 -0.00450245 
0.0342215 0.9994093 -0.0031467152 
0.0023619616 0.9997721 -0.021221135 
-0.014459481 0.99904454 -0.04124208 
-0.0045359232 0.9986591 -0.051571384 
0.012788957 0.9990702 -0.041172784 
0.011140724 0.9998188 -0.015441735 
0.0018695572 0.9999958 -0.0022206362 
0.011733237 0.9998292 -0.014281293 
0.038592286 0.9984936 -0.03900183 
0.06862133 0.9958442 -0.059879757 
0.09341651 0.9938968 -0.058673695 
0.09263543 0.99498224 -0.03780415 
0.05953874 0.9979485 -0.023535462 
0.021162963 0.99935657 -0.028961541 
-0.0011836854 0.99888086 -0.047281597 
-0.006643186 0.9979507 -0.06364265 
0.0062609026 0.9975123 -0.07021551 
0.0287725 0.99750465 -0.0644732 
0.043459304 0.99798954 -0.046133902 
0.047588337 0.9986353 -0.021514498 
0.04746534 0.9988629 0.004475853 
0.041524123 0.9987857 0.026512029 
0.028331373 0.99870026 0.042368397 
0.019127082 0.9995184 -0.024439175 
-0.0042337994 0.99915504 -0.040882297 
-0.02363862 0.9977577 -0.06261715 
-0.026200056 0.9968126 -0.07535391 
-0.020403204 0.9965334 -0.080653794 
-0.007734549 0.99645454 -0.08377674 
0.01718604 0.99710745 -0.07403777 
0.04893144 0.99784666 -0.043677885 
0.06749999 0.99768025 -0.008836051 
0.05059683 0.9987016 0.005928796 
0.010641974 0.9999311 -0.004965921 
-0.015222001 0.9995545 -0.025675649 
-0.008265792 0.99931616 -0.03604021 
0.010122199 0.99962044 -0.025626592 
0.00913911 0.99992824 -0.0077549266 
0.00035807444 0.99996084 -0.008853074 
0.010644452 0.9994572 -0.031177368 
0.03797192 0.9976814 -0.056480024 
0.067538455 0.99511224 -0.07204293 
0.08720493 0.9940432 -0.06537184 
0.07711839 0.9961697 -0.04121787 
0.037855256 0.999014 -0.02319849 
0.004808048 0.9997092 -0.023633745 
-0.0018375794 0.9992781 -0.037945103 
0.010046528 0.9987031 -0.04991326 
0.03213331 0.99786997 -0.056773137 
0.049636323 0.99681985 -0.062340897 