# OOMMF OVF 2.0
# Segment count: 1
# Begin: Segment
# Begin: Header
# Title: J
# meshtype: rectangular
# meshunit: m
# xmin: 0
# ymin: 0
# zmin: 0
# xmax: 32
# ymax: 32
# zmax: 1
# valuedim: 3
# valuelabels: J_x J_y J_z
# valueunits: A/m2 A/m2 A/m2
# Desc: Total simulation time:  0  s
# xbase: 0.5
# ybase: 0.5
# zbase: 0.5
# xnodes: 32
# ynodes: 32
# znodes: 1
# xstepsize: 1
# ystepsize: 1
# zstepsize: 1
# End: Header
# Begin: Data Text
0 0 39071112911.83118
0 0 39143002200.41326
0 0 39063186058.11311
0 0 39834179416.30209
0 0 40401852650.617035
0 0 64980443686.24907
0 0 153239289772.199
0 0 178149239904.58914
0 0 152520718542.77762
0 0 61583749025.35334
0 0 45768973241.56527
0 0 43420054281.97422
0 0 48969627125.47748
0 0 58934945612.64631
0 0 89338237929.29509
0 0 171433194471.6605
0 0 180135834370.01575
0 0 180606604878.64487
0 0 195280975793.77405
0 0 190783516309.69107
0 0 57825796133.04026
0 0 39081597716.188705
0 0 39105267213.991974
0 0 39264188455.49121
0 0 39820076349.486435
0 0 40672078692.709404
0 0 65419707465.75991
0 0 192310246172.39893
0 0 191936518936.5091
0 0 194351241126.657
0 0 194109690774.37387
0 0 190559426096.88147
0 0 39118648684.37938
0 0 39157699062.73959
0 0 39424839417.901505
0 0 39849164390.771164
0 0 39867868537.361984
0 0 125870354186.35477
0 0 185257057191.13736
0 0 186413936390.62363
0 0 155380942102.79715
0 0 74483991965.4712
0 0 48652454621.60012
0 0 42093437318.90226
0 0 47972839682.145744
0 0 73262153542.4474
0 0 107781126575.12749
0 0 174742485635.58582
0 0 192952754102.78586
0 0 194153778842.31314
0 0 195069793441.98502
0 0 194814696442.86557
0 0 194513690853.30283
0 0 39067385025.73194
0 0 39240466680.08699
0 0 40195145085.6324
0 0 42172624521.694885
0 0 46852745689.63042
0 0 112399087851.42479
0 0 194282555144.89267
0 0 193336194108.4237
0 0 194469096468.81708
0 0 194840175393.4893
0 0 195304920585.9885
0 0 39380043649.08471
0 0 40150119967.54941
0 0 42464836128.29999
0 0 43058599869.647896
0 0 42166373249.47886
0 0 178861093064.20554
0 0 194968972983.58447
0 0 194585980753.2815
0 0 181769519315.50095
0 0 132487327964.14795
0 0 81847808487.25783
0 0 44844130284.66091
0 0 51735639073.20129
0 0 102221558062.70306
0 0 154297350922.65976
0 0 187229766595.82
0 0 195071072910.1365
0 0 195099373816.21432
0 0 192005013695.02026
0 0 186617615508.65912
0 0 190701690300.44855
0 0 60024618994.42469
0 0 39368839385.43592
0 0 49663936648.94064
0 0 85448555428.45793
0 0 123809280616.16733
0 0 173416545301.0738
0 0 194026244491.80194
0 0 195233940605.1844
0 0 195287003167.49487
0 0 194854520751.02826
0 0 194876876709.0652
0 0 40482649377.05338
0 0 43629271652.09437
0 0 55522604849.71337
0 0 83743912419.97707
0 0 159448424837.94937
0 0 194867499292.58926
0 0 191516369453.83893
0 0 192095626843.27524
0 0 195132558950.5433
0 0 193296558715.81345
0 0 183232331754.0675
0 0 135092454013.96378
0 0 124903575039.8074
0 0 168425507321.0901
0 0 191750157582.0557
0 0 194649801239.0318
0 0 195312498048.99234
0 0 195280012135.7037
0 0 190617693990.18164
0 0 189350676416.99155
0 0 193161570381.52417
0 0 194075013781.44955
0 0 184347932260.1613
0 0 191809609538.65015
0 0 194918978769.4097
0 0 195121030495.60437
0 0 193975385906.5089
0 0 192887483635.02844
0 0 194442378032.8335
0 0 195157229232.53415
0 0 192069509277.02368
0 0 182640056007.30176
0 0 75725610983.66039
0 0 83500627238.43044
0 0 124776314752.98026
0 0 172044348507.9462
0 0 195283632505.2049
0 0 193335645902.69357
0 0 194481168866.40265
0 0 194196307915.8134
0 0 195112414187.8276
0 0 194852397180.3109
0 0 195311552427.0438
0 0 194873003872.34903
0 0 187487832737.75748
0 0 179460931579.42868
0 0 176598825233.59167
0 0 180909032593.02127
0 0 184346387093.18762
0 0 187458011000.7605
0 0 193918726116.38318
0 0 195292931645.38965
0 0 195245096289.81937
0 0 195224994466.33798
0 0 181451679253.3354
0 0 179716041468.96378
0 0 191482245429.3803
0 0 190624256763.78763
0 0 192663765750.17358
0 0 193775697500.1529
0 0 195233381101.21173
0 0 193980892520.052
0 0 182780320515.35385
0 0 83913350601.21239
0 0 169543570331.72052
0 0 175424363926.74487
0 0 192163820223.8068
0 0 195212604166.94705
0 0 194694213164.5102
0 0 194353102110.5125
0 0 191276716915.77942
0 0 190167821746.77188
0 0 190217509334.0769
0 0 194311030115.71237
0 0 195196871622.76175
0 0 195248979971.4541
0 0 195238292617.10504
0 0 188166266914.10596
0 0 166482836784.49786
0 0 155239427452.43176
0 0 155237765341.09793
0 0 167720351359.18372
0 0 182747256302.9845
0 0 194310831409.22403
0 0 194997763513.0592
0 0 195186938486.0906
0 0 181922772892.33392
0 0 175338721657.65164
0 0 184727575845.08176
0 0 181294156944.03693
0 0 188417922476.7339
0 0 193131599446.31793
0 0 194171804034.77573
0 0 187644501607.7417
0 0 63175405689.41378
0 0 40294829151.90627
0 0 193941964619.12332
0 0 195000072419.4138
0 0 195060769129.07053
0 0 194702671261.45453
0 0 195201431353.18753
0 0 189394239874.586
0 0 181621524769.6061
0 0 169943778984.81094
0 0 175338198191.41675
0 0 186410848849.19788
0 0 194799474175.75357
0 0 195278607464.32944
0 0 194390352044.24774
0 0 195215349594.66632
0 0 192171972140.8995
0 0 182740867439.33942
0 0 178304729520.69485
0 0 185461369816.01184
0 0 189700667017.87402
0 0 192551223392.46915
0 0 195246394849.53357
0 0 195056461085.984
0 0 191700891512.96204
0 0 175917387304.27463
0 0 176358879082.00333
0 0 173565900300.26154
0 0 186429192884.15424
0 0 192422701803.98816
0 0 191979424973.56833
0 0 174988507995.4457
0 0 65777679354.62483
0 0 39477017902.52738
0 0 195291711025.24597
0 0 195311079265.43918
0 0 194898197561.47897
0 0 194453567910.97775
0 0 194546163971.6071
0 0 179587229282.56027
0 0 158323342747.88953
0 0 141547338524.26746
0 0 132864679357.50949
0 0 141726954062.33704
0 0 193885244213.7256
0 0 195116073468.15887
0 0 191915700910.68738
0 0 192688271791.09085
0 0 188817762358.85532
0 0 192708155750.1184
0 0 194749368651.20926
0 0 195305712233.32727
0 0 195095605217.99063
0 0 191241429984.375
0 0 194467308097.70438
0 0 191010201426.07062
0 0 175191620320.71207
0 0 193971116131.98373
0 0 185999082983.7136
0 0 186834362478.93756
0 0 195233972390.214
0 0 195287088470.78183
0 0 194154273409.365
0 0 192669999945.27838
0 0 167283310359.3444
0 0 39062661695.8611
0 0 185716805625.81848
0 0 188335431896.2122
0 0 195230208150.9356
0 0 195210388630.2555
0 0 190411015061.08466
0 0 169262604474.97
0 0 153527024735.26804
0 0 120603816323.7187
0 0 70188939394.54025
0 0 40911452160.45808
0 0 193115887543.47552
0 0 182133537401.09613
0 0 177431702970.915
0 0 195044561478.43094
0 0 195185712900.1701
0 0 195308927077.45847
0 0 195289756572.14066
0 0 193018487522.08298
0 0 182234467895.5352
0 0 148436667814.38754
0 0 153556084341.24246
0 0 194159099723.8228
0 0 173948569753.30283
0 0 195250316900.57062
0 0 193774234694.00876
0 0 194993735686.8008
0 0 191377492339.48627
0 0 191240476829.29355
0 0 194275637731.24054
0 0 183844951357.40964
0 0 121796340162.43552
0 0 39860873969.493164
0 0 79186377310.07304
0 0 116904451134.51077
0 0 188429485407.1812
0 0 195270179367.1555
0 0 193253486713.34982
0 0 183590829145.29874
0 0 169717753035.75055
0 0 137253610809.06291
0 0 100356981975.61346
0 0 41871399252.19026
0 0 43667975724.038795
0 0 39065543654.47756
0 0 47512450395.956825
0 0 42362025932.14404
0 0 195306852873.0715
0 0 193000643852.6109
0 0 195047697853.719
0 0 189458978589.80865
0 0 148197355216.95627
0 0 46861398307.86121
0 0 44682297527.958
0 0 46789329325.746925
0 0 49329214680.555244
0 0 117587519871.9718
0 0 191970379141.9671
0 0 194114589125.72485
0 0 186380892910.48965
0 0 187304701394.71808
0 0 191624190345.2856
0 0 174579233438.20898
0 0 103067322644.70015
0 0 42293406307.81668
0 0 39324634345.361435
0 0 40661503960.348045
0 0 161079538136.22357
0 0 195306217718.69275
0 0 193974480894.05603
0 0 186345634859.4371
0 0 177594227070.32248
0 0 160998199821.30988
0 0 127734306751.40805
0 0 47671020049.27538
0 0 39798840622.92627
0 0 39063145821.18246
0 0 40366221520.26659
0 0 40175290805.85974
0 0 111869129636.31659
0 0 194640387053.79837
0 0 194125446767.67792
0 0 179851701879.62027
0 0 147959368589.8427
0 0 46239459236.22414
0 0 40811445630.18152
0 0 39945900705.406586
0 0 40037834977.97635
0 0 47260076775.776665
0 0 189418057399.13065
0 0 195220781249.488
0 0 191455770712.33768
0 0 189240211753.8136
0 0 187163072346.716
0 0 152040639760.57147
0 0 76513998474.0454
0 0 46224057207.57655
0 0 39062718875.50177
0 0 39154231737.42905
0 0 41781969280.631516
0 0 176575319001.29303
0 0 194537640266.43835
0 0 192613602324.4055
0 0 177557662031.87662
0 0 152629656451.44305
0 0 117564692835.3681
0 0 61524587399.64759
0 0 40234037773.65167
0 0 39064924809.30343
0 0 39123041029.00903
0 0 39123479745.46668
0 0 39106256320.72421
0 0 182003437445.6452
0 0 194471481056.60748
0 0 175430829010.7307
0 0 136789015308.65724
0 0 63060949489.22853
0 0 43448721432.936424
0 0 39171728432.26169
0 0 39082501520.53627
0 0 39593983138.18919
0 0 195069680475.98566
0 0 195217940218.04626
0 0 191701555769.4541
0 0 186868185194.30374
0 0 185318684641.14432
0 0 150788657218.82678
0 0 62142594623.5362
0 0 42257440322.01268
0 0 39227928686.24517
0 0 39063335338.00127
0 0 40548709613.74859
0 0 155981395750.5356
0 0 188216832366.68167
0 0 195101599480.03033
0 0 192173538842.55637
0 0 172112108807.81744
0 0 128413003362.82591
0 0 81178287062.6389
0 0 40746815035.46084
0 0 39388697909.97369
0 0 39224616770.97833
0 0 39111847810.501854
0 0 40522365864.560616
0 0 185623307194.554
0 0 189644309067.18527
0 0 189387549428.23862
0 0 184563590598.12988
0 0 146344108806.9297
0 0 120736331204.06819
0 0 42661540673.68666
0 0 39187130267.97979
0 0 41691388376.32063
0 0 195283700070.04218
0 0 195165730622.60007
0 0 189331128536.611
0 0 182556679242.06628
0 0 185463549110.26218
0 0 156598803849.89658
0 0 57335705825.309586
0 0 40854042728.675316
0 0 39470916399.93288
0 0 39090325379.963905
0 0 40590948684.88617
0 0 156741903244.97778
0 0 188632139361.24045
0 0 193151886542.53787
0 0 194212303844.64264
0 0 194294602504.21542
0 0 173774145952.28864
0 0 148725911007.1204
0 0 59143399285.82328
0 0 39628228600.168625
0 0 39155680431.782486
0 0 45914625900.07867
0 0 183992989177.38013
0 0 179891452877.72424
0 0 176854343863.89313
0 0 194480942234.15842
0 0 191625288318.48355
0 0 177249238694.3541
0 0 174777503844.80798
0 0 157588733929.6548
0 0 77008090148.57957
0 0 102791502650.90971
0 0 184523842664.38516
0 0 195312487166.53235
0 0 186193151042.83667
0 0 179688968468.0191
0 0 184052830240.8167
0 0 146960318105.46158
0 0 49440277826.47881
0 0 40340583662.34391
0 0 39966661544.74473
0 0 39351654052.49812
0 0 40141149524.040054
0 0 143282521380.602
0 0 192284970012.8956
0 0 194766863576.15567
0 0 195301409672.7686
0 0 194846742657.98026
0 0 194855890003.05176
0 0 185426390471.8531
0 0 141734580624.72934
0 0 46972317149.5377
0 0 51644760268.22112
0 0 163578534039.19196
0 0 177240861869.913
0 0 192223433451.86414
0 0 184932396024.25897
0 0 182130040704.4686
0 0 190278074412.21106
0 0 192446643086.11096
0 0 193390756912.5352
0 0 188765739754.7527
0 0 169129972524.26727
0 0 175104979847.03955
0 0 193102136974.05826
0 0 195297280977.09348
0 0 189318308788.11462
0 0 183266358376.5694
0 0 177940960101.7129
0 0 105365839660.65396
0 0 42124123642.250175
0 0 39338050723.20875
0 0 39819861292.98532
0 0 39304929148.20574
0 0 41402209995.267715
0 0 116217205611.74762
0 0 173862623294.11206
0 0 195304771233.54022
0 0 190905747069.656
0 0 194165306856.49838
0 0 195303065492.2574
0 0 191719418696.58606
0 0 191493963113.2406
0 0 190075101931.45163
0 0 190082828435.09512
0 0 194760944261.56125
0 0 190862787731.75616
0 0 169371407688.18533
0 0 161190114544.41074
0 0 184403125979.5697
0 0 195030542143.35455
0 0 195205694668.7772
0 0 195293426473.028
0 0 192087580589.67816
0 0 186513874142.57224
0 0 192982940326.67355
0 0 193737442310.5091
0 0 194974397171.4051
0 0 189228918323.57697
0 0 168660620534.918
0 0 141574860376.97977
0 0 49102329134.78904
0 0 39065798528.06749
0 0 39387294406.48186
0 0 39387301904.57162
0 0 39065799681.72385
0 0 49102726829.117226
0 0 141575807686.39212
0 0 168661895923.09998
0 0 189229167357.6311
0 0 194974579030.7498
0 0 193737793863.06897
0 0 192983413472.16693
0 0 186514666962.81314
0 0 192087382666.09302
0 0 195293288342.94073
0 0 195205997235.75092
0 0 195030206898.78824
0 0 184400577025.79953
0 0 161189088967.80966
0 0 169383825771.5899
0 0 190862300355.60715
0 0 194762324022.8727
0 0 190087633595.89105
0 0 190084883750.07687
0 0 191496167342.4803
0 0 191718879029.1658
0 0 195302997656.13138
0 0 194165046764.76453
0 0 190904105938.2517
0 0 195304696677.29657
0 0 173863307924.21542
0 0 116215445649.4847
0 0 41402169025.35058
0 0 39304936010.543594
0 0 39819849584.554436
0 0 39338060805.34504
0 0 42124310641.65087
0 0 105367827126.81285
0 0 177940930307.47507
0 0 183267155767.91522
0 0 189319203924.86835
0 0 195297286137.92593
0 0 193102687967.49115
0 0 175107231525.09427
0 0 169132837096.10605
0 0 188767020737.2627
0 0 193389844698.67737
0 0 192445729384.1833
0 0 190278712512.5601
0 0 182138654689.26245
0 0 184959842913.08994
0 0 192234980502.65482
0 0 177248763133.19815
0 0 163548485107.89688
0 0 51638141167.363335
0 0 46966640904.72072
0 0 141741557104.04367
0 0 185426207577.15488
0 0 194855059400.50284
0 0 194847002656.51648
0 0 195301365747.89758
0 0 194765845418.95218
0 0 192286762497.3061
0 0 143277632888.85846
0 0 40141144359.71584
0 0 39351668534.980255
0 0 39966672298.198524
0 0 40340589032.54737
0 0 49440612576.18989
0 0 146961707368.93304
0 0 184052774771.07285
0 0 179689166978.94952
0 0 186193588667.4813
0 0 195312487154.04453
0 0 184525472640.60547
0 0 102797767922.702
0 0 77021334777.81854
0 0 157596380105.28455
0 0 174772639256.88428
0 0 177252549712.75476
0 0 191630407642.43732
0 0 194486016301.74927
0 0 176829845165.2313
0 0 179894509004.39606
0 0 184022493415.41525
0 0 45916877242.40391
0 0 39155890693.29031
0 0 39628272816.50033
0 0 59143820700.96271
0 0 148736672385.68695
0 0 173770772895.9267
0 0 194292998811.9554
0 0 194212889149.01883
0 0 193152234427.12286
0 0 188633157374.83777
0 0 156739085272.5203
0 0 40591101214.217316
0 0 39090323131.75524
0 0 39470921369.928406
0 0 40854024981.85221
0 0 57335839193.72458
0 0 156599603893.75464
0 0 185463581764.27078
0 0 182556442108.82635
0 0 189330941278.76114
0 0 195165679122.73035
0 0 195283732452.49203
0 0 41690620683.92509
0 0 39187204869.07808
0 0 42661551787.02917
0 0 120711078861.8633
0 0 146345668514.5293
0 0 184560725283.5517
0 0 189386560024.0276
0 0 189647740334.01358
0 0 185630039701.62097
0 0 40520129303.536964
0 0 39111777521.29834
0 0 39224414868.58334
0 0 39388356552.871216
0 0 40747148291.409836
0 0 81188189829.55522
0 0 128411946294.61693
0 0 172098495291.12723
0 0 192168808388.08893
0 0 195102092086.34512
0 0 188217389542.0829
0 0 155978300855.49924
0 0 40548992014.95591
0 0 39063334270.60273
0 0 39227929545.6905
0 0 42257398543.91595
0 0 62142428600.8006
0 0 150788905947.72543
0 0 185318873595.72787
0 0 186867922725.27316
0 0 191701295210.69257
0 0 195217947635.63364
0 0 195069383568.49133
0 0 39593673629.297905
0 0 39082485512.40461
0 0 39171732235.48266
0 0 43448007380.91084
0 0 63054577254.827866
0 0 136789031239.64824
0 0 175443765804.1088
0 0 194466883254.67307
0 0 181970396284.47366
0 0 39105925138.973114
0 0 39123461259.19338
0 0 39122914114.0512
0 0 39064956267.44968
0 0 40234215147.9182
0 0 61528825484.96786
0 0 117583029441.90562
0 0 152632463000.1329
0 0 177551661587.95084
0 0 192610487386.47754
0 0 194538553810.8304
0 0 176574699852.29507
0 0 41782417468.82893
0 0 39154232791.68481
0 0 39062719502.871704
0 0 46223973309.97855
0 0 76513647058.54901
0 0 152040186197.97815
0 0 187162881219.28616
0 0 189239881107.0929
0 0 191455678028.30392
0 0 195220839511.85104
0 0 189416618071.19495
0 0 47264235796.723625
0 0 40038049088.583626
0 0 39946013439.747475
0 0 40811184750.26987
0 0 46238218724.82881
0 0 147959569353.95483
0 0 179851860221.9282
0 0 194127621245.96948
0 0 194643431150.1272
0 0 111881776069.70505
0 0 40174721363.11659
0 0 40365808477.52683
0 0 39063160515.9961
0 0 39798674065.482735
0 0 47673497546.668434
0 0 127738674362.10841
0 0 161002632459.82224
0 0 177596900741.71048
0 0 186342909325.8818
0 0 193973262433.79425
0 0 195306251179.69708
0 0 161082548511.46884
0 0 40661615469.72082
0 0 39324655130.274376
0 0 42293360916.38457
0 0 103067124130.48677
0 0 174578581474.97906
0 0 191623982507.9805
0 0 187304313388.34814
0 0 186380408681.51346
0 0 194114225146.06116
0 0 191971517331.54395
0 0 117596754498.15166
0 0 49328900041.82454
0 0 46789611141.75694
0 0 44681680134.80181
0 0 46861009768.96786
0 0 148212289320.29208
0 0 189455286771.9527
0 0 195046730206.63885
0 0 192998577925.86945
0 0 195306912387.06705
0 0 42357367519.12332
0 0 47516198575.45669
0 0 39065509740.05798
0 0 43667391968.30197
0 0 41871432161.48917
0 0 100341805882.69005
0 0 137240816615.53278
0 0 169709876411.09772
0 0 183586284670.85202
0 0 193252476738.86606
0 0 195270142267.0065
0 0 188428742286.76514
0 0 116901968471.71269
0 0 79184538520.1277
0 0 39860867196.45386
0 0 121796511433.2146
0 0 183844694413.03122
0 0 194275587561.8979
0 0 191240231554.27264
0 0 191376867918.22787
0 0 194994078391.1715
0 0 193775282835.84174
0 0 195250672215.04965
0 0 173942672930.04382
0 0 194159345650.64105
0 0 153556455229.36557
0 0 148441619828.10602
0 0 182235491045.4052
0 0 193017429486.9085
0 0 195289846161.536
0 0 195308885817.90005
0 0 195185784529.86005
0 0 195044853994.60516
0 0 177430748877.50137
0 0 182130451585.81903
0 0 193107627408.66034
0 0 40912830618.61277
0 0 70184851411.42355
0 0 120603528873.64626
0 0 153522767574.89517
0 0 169257468886.2478
0 0 190410426739.92288
0 0 195210427413.06912
0 0 195230134629.65228
0 0 188335245461.80933
0 0 185717041178.0192
0 0 39062661409.633415
0 0 167283192366.51923
0 0 192670036126.39526
0 0 194154289426.80185
0 0 195287061618.33746
0 0 195234081627.61746
0 0 186835466891.8578
0 0 186000620294.96088
0 0 193972516431.68588
0 0 175187782159.32516
0 0 191010133127.19678
0 0 194467145994.4558
0 0 191243745802.35464
0 0 195096266105.9876
0 0 195305700972.58643
0 0 194748916357.3267
0 0 192708124265.90735
0 0 188818084312.83728
0 0 192687523991.65115
0 0 191915722744.58237
0 0 195115854908.49844
0 0 193886436373.16266
0 0 141715234094.90692
0 0 132861364782.69693
0 0 141544232603.09866
0 0 158314157873.6493
0 0 179583455046.5389
0 0 194546155644.58466
0 0 194453641077.14355
0 0 194898361985.52106
0 0 195311084026.37454
0 0 195291725336.12006
0 0 39477020603.0018
0 0 65777751147.694984
0 0 174988241585.4823
0 0 191979300782.45264
0 0 192422744710.8131
0 0 186429506788.6155
0 0 173565700363.627
0 0 176359036877.10074
0 0 175920341011.3624
0 0 191702628386.98776
0 0 195056480878.18024
0 0 195246322324.85156
0 0 192551933326.03128
0 0 189704493861.9799
0 0 185465148048.65518
0 0 178309264981.07663
0 0 182744292410.54565
0 0 192172776072.98227
0 0 195215447548.83936
0 0 194390843726.06613
0 0 195278678462.57568
0 0 194799922161.85822
0 0 186409532810.89905
0 0 175334790430.1728
0 0 169937093232.5717
0 0 181616532959.84302
0 0 189394435349.14627
0 0 195201617243.824
0 0 194702537724.81754
0 0 195060851459.9111
0 0 195000041974.08984
0 0 193941873325.0175
0 0 40294835558.77286
0 0 63175327769.16644
0 0 187644510677.0203
0 0 194171759272.04593
0 0 193131519804.9014
0 0 188417721134.48083
0 0 181293638339.90598
0 0 184727523068.7066
0 0 175339980838.0773
0 0 181923478517.90823
0 0 195187022184.9272
0 0 194997804944.18768
0 0 194310687770.99274
0 0 182746374996.11902
0 0 167720086771.75775
0 0 155237665408.5745
0 0 155240292959.8185
0 0 166483314216.97787
0 0 188166387429.42886
0 0 195238405398.53125
0 0 195248901768.0198
0 0 195197104992.7786
0 0 194311370664.90814
0 0 190217758545.0942
0 0 190167384217.12454
0 0 191277510987.25412
0 0 194354052325.2814
0 0 194693883890.625
0 0 195212585084.689
0 0 192163821578.1594
0 0 175424841871.1364
0 0 169543442121.08115
0 0 83913511756.19858
0 0 182780922271.51633
0 0 193980811479.05908
0 0 195233397901.81238
0 0 193775759777.4522
0 0 192663726860.66293
0 0 190624231356.20648
0 0 191482717057.11108
0 0 179716845127.2982
0 0 181450733749.14178
0 0 195225004362.47534
0 0 195245118807.15176
0 0 195292853389.15753
0 0 193917006526.74658
0 0 187455351753.4912
0 0 184343875941.55734
0 0 180906668783.5277
0 0 176596799680.21875
0 0 179460884404.56335
0 0 187488028092.94943
0 0 194873197945.9499
0 0 195311566663.6452
0 0 194852061447.00745
0 0 195112110041.48413
0 0 194195763749.24554
0 0 194480533834.20523
0 0 193335076560.40826
0 0 195283639973.3888
0 0 172044555133.73676
0 0 124776230618.28278
0 0 83499800728.27042
0 0 75723704977.81815
0 0 182639692176.53903
0 0 192069632444.62186
0 0 195157222735.852
0 0 194442368706.82175
0 0 192887448281.97635
0 0 193975223418.8504
0 0 195120972994.30136
0 0 194918672568.4976
0 0 191810892703.05124
0 0 184347092333.52377
0 0 194074325223.9989
0 0 193162237724.21927
0 0 189352294616.28934
0 0 190618653357.71756
0 0 195279971473.161
0 0 195312498337.1603
0 0 194649717975.8126
0 0 191749839520.82208
0 0 168428010058.8681
0 0 124907483006.8413
0 0 135097882983.38023
0 0 183233931186.55777
0 0 193297088672.38776
0 0 195132365202.47025
0 0 192095079654.99625
0 0 191516026732.30713
0 0 194867590106.90298
0 0 159446882126.27252
0 0 83744337265.47899
0 0 55522620579.99077
0 0 43629178841.313446
0 0 40482580149.0812
0 0 194876817488.42477
0 0 194854535496.2982
0 0 195286999671.44226
0 0 195233934977.42633
0 0 194026405257.5255
0 0 173418274614.62585
0 0 123810111434.95612
0 0 85448139365.66925
0 0 49664754996.70966
0 0 39368977532.496315
0 0 60027428374.95446
0 0 190700628265.0562
0 0 186615893173.0094
0 0 192004325569.34616
0 0 195099399890.8123
0 0 195070955089.7097
0 0 187232172288.10712
0 0 154301270566.56958
0 0 102225640336.3142
0 0 51735119435.404594
0 0 44844157486.42036
0 0 81850269867.25722
0 0 132489052326.94417
0 0 181770570584.67996
0 0 194586107848.46002
0 0 194968975717.65048
0 0 178860086461.86545
0 0 42166525351.845985
0 0 43058643744.95958
0 0 42464823776.75762
0 0 40150104707.00811
0 0 39380035161.42638
0 0 195304912766.21014
0 0 194840139969.19116
0 0 194469103683.09906
0 0 193336177577.38763
0 0 194282804651.48523
0 0 112403096872.81769
0 0 46852344741.210075
0 0 42172853503.81363
0 0 40195364000.62388
0 0 39240537995.05401
0 0 39067356024.26103
0 0 194508953835.36215
0 0 194813648327.40753
0 0 195069551353.8766
0 0 194154198215.66592
0 0 192952422273.95966
0 0 174747220263.29117
0 0 107782748397.03313
0 0 73263486377.18912
0 0 47972475499.59338
0 0 42093416470.30187
0 0 48652613528.423615
0 0 74483581441.7143
0 0 155381793739.18082
0 0 186414595252.97006
0 0 185257556027.2629
0 0 125868367304.2937
0 0 39867891991.78284
0 0 39849174711.34345
0 0 39424849563.55376
0 0 39157703211.073074
0 0 39118654539.31269
0 0 190559229384.937
0 0 194109580481.98816
0 0 194351189249.43945
0 0 191936374633.74084
0 0 192309790311.2842
0 0 65427909582.11047
0 0 40672078408.28686
0 0 39820201136.40268
0 0 39264279962.283455
0 0 39105323116.24379
0 0 39081529240.37552
0 0 57806058458.20148
0 0 190789085376.9492
0 0 195280786071.0943
0 0 180606347816.2646
0 0 180133169765.3044
0 0 171440065051.0549
0 0 89341901768.97102
0 0 58936065973.930176
0 0 48969146723.410416
0 0 43419721092.12262
0 0 45768413878.30134
0 0 61583835394.11309
0 0 152523145253.76868
0 0 178151324749.80707
0 0 153241310425.3505
0 0 64979975155.50997
0 0 40401766912.51767
0 0 39834177675.21478
0 0 39063187241.02534
0 0 39142996521.67647
0 0 39071110744.90605
# End: Data Text
# End: Segment
